============================== echo of input deck ==============================
start

title "Molecule conformer 0"

memory total 4000 mb

echo
geometry units angstroms
   C     -0.6924    -0.5305    -0.0794
   C      0.8105    -0.3241    -0.0726
   C     -0.1180     0.8543     0.1520
   H     -1.0928    -1.0194     0.8339
   H     -1.1302    -0.6828    -1.0887
   H      1.3196    -0.6883     0.8448
   H      1.2820    -0.3513    -1.0778
   H     -0.1705     1.2028     1.2052
   H     -0.2082     1.5395    -0.7174
end

basis spherical
* library 6-311G
end

driver
  maxiter 500
  xyz final
end

relativistic
  zora on
  zora:cutoff_NMR 1d-8
  zora:cutoff 1d-30
end

dft
  direct
  grid fine
  xc B3LYP
  mult 1
  maxiter 1500
  noprint "final vectors analysis" multipole
end

task dft optimize

task dft freq

property
  shielding 6 4 5 6 7 8 9
end

cosmo
   solvent cdcl3
end

task dft property
================================================================================

         Total DFT energy =     -117.947916016825
@ Step       Energy      Delta E   Gmax     Grms     Xrms     Xmax   Walltime
@ ---- ---------------- -------- -------- -------- -------- -------- --------
@    0    -117.94791602  0.0D+00  0.01995  0.00735  0.00000  0.00000     13.4
         Total DFT energy =     -117.955488868509
         Total DFT energy =     -117.955845217981
@    1    -117.95584522 -7.9D-03  0.00758  0.00284  0.05330  0.10623     37.4
         Total DFT energy =     -117.957413139426
         Total DFT energy =     -117.957993585215
@    2    -117.95799359 -2.1D-03  0.00356  0.00118  0.03482  0.07022     61.0
         Total DFT energy =     -117.958162065070
         Total DFT energy =     -117.958170056166
@    3    -117.95817006 -1.8D-04  0.00078  0.00023  0.00825  0.01603     83.0
         Total DFT energy =     -117.958177274263
         Total DFT energy =     -117.958177446778
@    4    -117.95817745 -7.4D-06  0.00004  0.00001  0.00224  0.00362    101.1
         Total DFT energy =     -117.958177520163
         Total DFT energy =   -117.958177520163
@    5    -117.95817752 -7.3D-08  0.00000  0.00000  0.00013  0.00022    108.7
@    5    -117.95817752 -7.3D-08  0.00000  0.00000  0.00013  0.00022    108.7

 Output coordinates in angstroms (scale by  1.889725989 to convert to a.u.)

  No.       Tag          Charge          X              Y              Z
 ---- ---------------- ---------- -------------- -------------- --------------
    1 C                    6.0000    -0.84596511     0.22667567     0.00000000
    2 C                    6.0000     0.22667567    -0.84596511     0.00000000
    3 C                    6.0000     0.61928944     0.61928944     0.00000000
    4 H                    1.0000    -1.41540426     0.37925643     0.90590284
    5 H                    1.0000    -1.41540426     0.37925643    -0.90590284
    6 H                    1.0000     0.37925643    -1.41540426     0.90590284
    7 H                    1.0000     0.37925643    -1.41540426    -0.90590284
    8 H                    1.0000     1.03614783     1.03614783     0.90590284
    9 H                    1.0000     1.03614783     1.03614783    -0.90590284

         Total DFT energy =     -117.958177520203
         Total DFT energy =     -117.958400559699
         Total DFT energy =     -117.958398439282
         Total DFT energy =     -117.958400559758
         Total DFT energy =     -117.958398439339
         Total DFT energy =     -117.958387675153
         Total DFT energy =     -117.958387655630
         Total DFT energy =     -117.958415396983
         Total DFT energy =     -117.958416499122
         Total DFT energy =     -117.958415395900
         Total DFT energy =     -117.958416500175
         Total DFT energy =     -117.958407974527
         Total DFT energy =     -117.958406204039
 Zero-Point correction to Energy  =   51.261 kcal/mol  (  0.081689 au)
 Thermal correction to Energy     =   53.350 kcal/mol  (  0.085019 au)
 Thermal correction to Enthalpy   =   53.943 kcal/mol  (  0.085963 au)
 Total Entropy                    =   56.532 cal/mol-K
   - Translational                =   37.119 cal/mol-K (mol. weight =  42.0469)
   - Rotational                   =   18.126 cal/mol-K (symmetry #  =        6)
   - Vibrational                  =    1.287 cal/mol-K
   - Translational                  =    2.979 cal/mol-K
   - Rotational                     =    2.979 cal/mol-K
   - Vibrational                    =    4.806 cal/mol-K
 P.Frequency       -0.00       -0.00       -0.00       -0.00        0.00        0.00
 P.Frequency      779.17      779.17      873.30      875.13      875.13     1091.56
 P.Frequency     1091.56     1138.65     1165.22     1212.75     1231.95     1231.95
 P.Frequency     1509.78     1509.78     1539.95     3115.42     3115.42     3129.01
 P.Frequency     3195.19     3195.19     3219.39

 Normal Eigenvalue ||           Projected Infra Red Intensities
  Mode   [cm**-1]  || [atomic units] [(debye/angs)**2] [(KM/mol)] [arbitrary]
 ------ ---------- || -------------- ----------------- ---------- -----------
    1       -0.000 ||    0.000000           0.000         0.000       0.000
    2       -0.000 ||    0.000000           0.000         0.000       0.000
    3       -0.000 ||    0.000000           0.000         0.000       0.000
    4       -0.000 ||    0.000000           0.000         0.000       0.000
    5        0.000 ||    0.000000           0.000         0.000       0.000
    6        0.000 ||    0.000000           0.000         0.000       0.000
    7      779.168 ||    0.000000           0.000         0.000       0.000
    8      779.168 ||    0.000000           0.000         0.000       0.000
    9      873.301 ||    0.000302           0.007         0.294       0.382
   10      875.129 ||    0.025042           0.578        24.412      31.736
   11      875.129 ||    0.025042           0.578        24.412      31.736
   12     1091.557 ||    0.017915           0.413        17.464      22.704
   13     1091.557 ||    0.017915           0.413        17.464      22.704
   14     1138.650 ||    0.000000           0.000         0.000       0.000
   15     1165.222 ||    0.000000           0.000         0.000       0.000
   16     1212.753 ||    0.000000           0.000         0.000       0.000
   17     1231.953 ||    0.000000           0.000         0.000       0.000
   18     1231.953 ||    0.000000           0.000         0.000       0.000
   19     1509.781 ||    0.003132           0.072         3.053       3.969
   20     1509.781 ||    0.003132           0.072         3.053       3.969
   21     1539.945 ||    0.000000           0.000         0.000       0.000
   22     3115.416 ||    0.031611           0.729        30.816      40.061
   23     3115.416 ||    0.031611           0.729        30.816      40.061
   24     3129.010 ||    0.000000           0.000         0.000       0.000
   25     3195.187 ||    0.000000           0.000         0.000       0.000
   26     3195.187 ||    0.000000           0.000         0.000       0.000
   27     3219.391 ||    0.057346           1.323        55.903      72.675
 ----------------------------------------------------------------------------

         Total DFT energy =     -117.960040504170
      Atom:    1  H
           isotropic =      32.5801
      Atom:    2  H
           isotropic =      32.5801
      Atom:    3  H
           isotropic =      32.5801
      Atom:    4  H
           isotropic =      32.5801
      Atom:    5  H
           isotropic =      32.5673
      Atom:    6  H
           isotropic =      32.5716
 Total times  cpu:      254.7s     wall:      295.5s
