============================== echo of input deck ==============================
start

title "Molecule conformer 0"

memory total 4000 mb

echo
geometry units angstroms
   C      0.8265    -0.2893     0.0144
   C     -0.6632    -0.5709    -0.0361
   C     -0.1633     0.8602     0.0217
   H      1.2991    -0.4941     0.9984
   H      1.3540    -0.4345    -0.9521
   H     -1.0370    -0.8864    -1.0332
   H     -1.0919    -0.9460     0.9173
   H     -0.2895     1.3507     1.0101
   H     -0.2346     1.4103    -0.9405
end

basis spherical
* library 6-311G
end

driver
  maxiter 500
  xyz final
end

relativistic
  zora on
  zora:cutoff_NMR 1d-8
  zora:cutoff 1d-30
end

dft
  direct
  grid fine
  xc B3LYP
  mult 1
  maxiter 1500
  noprint "final vectors analysis" multipole
end

task dft optimize

task dft freq

property
  shielding 6 4 5 6 7 8 9
end

cosmo
   solvent cdcl3
end

task dft property
================================================================================

         Total DFT energy =     -117.947917813603
@ Step       Energy      Delta E   Gmax     Grms     Xrms     Xmax   Walltime
@ ---- ---------------- -------- -------- -------- -------- -------- --------
@    0    -117.94791781  0.0D+00  0.01995  0.00735  0.00000  0.00000     11.2
         Total DFT energy =     -117.955490692060
         Total DFT energy =     -117.955846514143
@    1    -117.95584651 -7.9D-03  0.00757  0.00284  0.05328  0.10620     35.0
         Total DFT energy =     -117.957412801579
         Total DFT energy =     -117.957993283282
@    2    -117.95799328 -2.1D-03  0.00358  0.00118  0.03487  0.07238     59.4
         Total DFT energy =     -117.958161669693
         Total DFT energy =     -117.958169737160
@    3    -117.95816974 -1.8D-04  0.00076  0.00023  0.00822  0.01597     83.5
         Total DFT energy =     -117.958176871959
         Total DFT energy =     -117.958177043486
@    4    -117.95817704 -7.3D-06  0.00004  0.00001  0.00226  0.00374    102.2
         Total DFT energy =     -117.958177143312
         Total DFT energy =   -117.958177143312
@    5    -117.95817714 -1.0D-07  0.00001  0.00000  0.00015  0.00026    111.1
@    5    -117.95817714 -1.0D-07  0.00001  0.00000  0.00015  0.00026    111.1

 Output coordinates in angstroms (scale by  1.889725989 to convert to a.u.)

  No.       Tag          Charge          X              Y              Z
 ---- ---------------- ---------- -------------- -------------- --------------
    1 C                    6.0000     0.87080567     0.09346943     0.00000000
    2 C                    6.0000    -0.35445594    -0.80087454     0.00000000
    3 C                    6.0000    -0.51634973     0.70740512     0.00000000
    4 H                    1.0000     1.45696174     0.15638524     0.90591086
    5 H                    1.0000     1.45696174     0.15638524    -0.90591086
    6 H                    1.0000    -0.59304728    -1.33995850    -0.90591086
    7 H                    1.0000    -0.59304728    -1.33995850     0.90591086
    8 H                    1.0000    -0.86391446     1.18357327     0.90591086
    9 H                    1.0000    -0.86391446     1.18357327    -0.90591086

         Total DFT energy =     -117.958177143312
         Total DFT energy =     -117.958400573069
         Total DFT energy =     -117.958402358335
         Total DFT energy =     -117.958396725123
         Total DFT energy =     -117.958394215555
         Total DFT energy =     -117.958386611284
         Total DFT energy =     -117.958386650989
         Total DFT energy =     -117.958416172249
         Total DFT energy =     -117.958415219815
         Total DFT energy =     -117.958413496450
         Total DFT energy =     -117.958414767837
         Total DFT energy =     -117.958406994356
         Total DFT energy =     -117.958405116597
 Zero-Point correction to Energy  =   51.258 kcal/mol  (  0.081685 au)
 Thermal correction to Energy     =   53.348 kcal/mol  (  0.085015 au)
 Thermal correction to Enthalpy   =   53.940 kcal/mol  (  0.085959 au)
 Total Entropy                    =   57.909 cal/mol-K
   - Translational                =   37.119 cal/mol-K (mol. weight =  42.0469)
   - Rotational                   =   19.502 cal/mol-K (symmetry #  =        3)
   - Vibrational                  =    1.288 cal/mol-K
   - Translational                  =    2.979 cal/mol-K
   - Rotational                     =    2.979 cal/mol-K
   - Vibrational                    =    4.808 cal/mol-K
 P.Frequency       -0.00        0.00        0.00        0.00        0.00        0.00
 P.Frequency      779.06      779.06      873.05      874.81      874.81     1091.57
 P.Frequency     1091.57     1137.86     1165.23     1212.99     1231.99     1231.99
 P.Frequency     1509.79     1509.79     1539.83     3115.37     3115.37     3128.99
 P.Frequency     3195.12     3195.12     3219.33

 Normal Eigenvalue ||           Projected Infra Red Intensities
  Mode   [cm**-1]  || [atomic units] [(debye/angs)**2] [(KM/mol)] [arbitrary]
 ------ ---------- || -------------- ----------------- ---------- -----------
    1       -0.000 ||    0.000000           0.000         0.000       0.000
    2        0.000 ||    0.000000           0.000         0.000       0.000
    3        0.000 ||    0.000000           0.000         0.000       0.000
    4        0.000 ||    0.000000           0.000         0.000       0.000
    5        0.000 ||    0.000000           0.000         0.000       0.000
    6        0.000 ||    0.000000           0.000         0.000       0.000
    7      779.058 ||    0.000000           0.000         0.000       0.000
    8      779.058 ||    0.000000           0.000         0.000       0.000
    9      873.047 ||    0.000299           0.007         0.292       0.380
   10      874.811 ||    0.025001           0.577        24.372      31.687
   11      874.811 ||    0.025001           0.577        24.372      31.687
   12     1091.570 ||    0.017958           0.414        17.506      22.760
   13     1091.570 ||    0.017958           0.414        17.506      22.760
   14     1137.861 ||    0.000000           0.000         0.000       0.000
   15     1165.229 ||    0.000000           0.000         0.000       0.000
   16     1212.993 ||    0.000000           0.000         0.000       0.000
   17     1231.991 ||    0.000000           0.000         0.000       0.000
   18     1231.991 ||    0.000000           0.000         0.000       0.000
   19     1509.786 ||    0.003139           0.072         3.060       3.979
   20     1509.786 ||    0.003139           0.072         3.060       3.979
   21     1539.830 ||    0.000000           0.000         0.000       0.000
   22     3115.366 ||    0.031605           0.729        30.810      40.057
   23     3115.366 ||    0.031605           0.729        30.810      40.057
   24     3128.994 ||    0.000000           0.000         0.000       0.000
   25     3195.124 ||    0.000000           0.000         0.000       0.000
   26     3195.124 ||    0.000000           0.000         0.000       0.000
   27     3219.335 ||    0.057323           1.322        55.882      72.653
 ----------------------------------------------------------------------------

         Total DFT energy =     -117.960432964620
      Atom:    1  H
           isotropic =      32.5591
      Atom:    2  H
           isotropic =      32.5590
      Atom:    3  H
           isotropic =      32.5733
      Atom:    4  H
           isotropic =      32.5733
      Atom:    5  H
           isotropic =      32.5577
      Atom:    6  H
           isotropic =      32.5617
 Total times  cpu:      271.6s     wall:      304.7s
