============================== echo of input deck ==============================
start

title "Molecule conformer 0"

memory total 4000 mb

echo
geometry units angstroms
   C     -0.4785    -0.7333     0.0181
   C     -0.3960     0.7811    -0.0134
   C      0.8745    -0.0477    -0.0048
   H     -0.7744    -1.1969    -0.9468
   H     -0.7615    -1.1569     1.0050
   H     -0.6292     1.2735     0.9544
   H     -0.6421     1.2335    -0.9973
   H      1.3971    -0.0966    -0.9836
   H      1.4100    -0.0567     0.9682
end

basis spherical
* library 6-311G
end

driver
  maxiter 500
  xyz final
end

relativistic
  zora on
  zora:cutoff_NMR 1d-8
  zora:cutoff 1d-30
end

dft
  direct
  grid fine
  xc B3LYP
  mult 1
  maxiter 1500
  noprint "final vectors analysis" multipole
end

task dft optimize

task dft freq

property
  shielding 6 4 5 6 7 8 9
end

cosmo
   solvent cdcl3
end

task dft property
================================================================================

         Total DFT energy =     -117.947917431230
@ Step       Energy      Delta E   Gmax     Grms     Xrms     Xmax   Walltime
@ ---- ---------------- -------- -------- -------- -------- -------- --------
@    0    -117.94791743  0.0D+00  0.01995  0.00735  0.00000  0.00000     11.9
         Total DFT energy =     -117.955490414092
         Total DFT energy =     -117.955846765201
@    1    -117.95584677 -7.9D-03  0.00758  0.00284  0.05330  0.10624     37.6
         Total DFT energy =     -117.957414198897
         Total DFT energy =     -117.957993750220
@    2    -117.95799375 -2.1D-03  0.00354  0.00118  0.03481  0.07089     61.1
         Total DFT energy =     -117.958162178282
         Total DFT energy =     -117.958170182829
@    3    -117.95817018 -1.8D-04  0.00077  0.00023  0.00827  0.01607     84.6
         Total DFT energy =     -117.958177486861
         Total DFT energy =     -117.958177664613
@    4    -117.95817766 -7.5D-06  0.00005  0.00002  0.00229  0.00371    101.7
         Total DFT energy =     -117.958177770894
         Total DFT energy =   -117.958177770894
@    5    -117.95817777 -1.1D-07  0.00001  0.00000  0.00017  0.00029    110.1
@    5    -117.95817777 -1.1D-07  0.00001  0.00000  0.00017  0.00029    110.1

 Output coordinates in angstroms (scale by  1.889725989 to convert to a.u.)

  No.       Tag          Charge          X              Y              Z
 ---- ---------------- ---------- -------------- -------------- --------------
    1 C                    6.0000    -0.85412204     0.19371567     0.00000000
    2 C                    6.0000     0.59482371     0.64283355     0.00000000
    3 C                    6.0000     0.25929833    -0.83654922     0.00000000
    4 H                    1.0000    -1.42904687     0.32410525    -0.90590436
    5 H                    1.0000    -1.42904687     0.32410525     0.90590436
    6 H                    1.0000     0.99520682     1.07553826     0.90590436
    7 H                    1.0000     0.99520682     1.07553826    -0.90590436
    8 H                    1.0000     0.43384005    -1.39964352    -0.90590436
    9 H                    1.0000     0.43384005    -1.39964352     0.90590436

         Total DFT energy =     -117.958177770929
         Total DFT energy =     -117.958407529514
         Total DFT energy =     -117.958406634261
         Total DFT energy =     -117.958389603261
         Total DFT energy =     -117.958392130436
         Total DFT energy =     -117.958387437807
         Total DFT energy =     -117.958386835970
         Total DFT energy =     -117.958417263731
         Total DFT energy =     -117.958417810934
         Total DFT energy =     -117.958414113154
         Total DFT energy =     -117.958412496915
         Total DFT energy =     -117.958405535604
         Total DFT energy =     -117.958407589354
 Zero-Point correction to Energy  =   51.260 kcal/mol  (  0.081688 au)
 Thermal correction to Energy     =   53.350 kcal/mol  (  0.085018 au)
 Thermal correction to Enthalpy   =   53.942 kcal/mol  (  0.085962 au)
 Total Entropy                    =   57.909 cal/mol-K
   - Translational                =   37.119 cal/mol-K (mol. weight =  42.0469)
   - Rotational                   =   19.503 cal/mol-K (symmetry #  =        3)
   - Vibrational                  =    1.288 cal/mol-K
   - Translational                  =    2.979 cal/mol-K
   - Rotational                     =    2.979 cal/mol-K
   - Vibrational                    =    4.806 cal/mol-K
 P.Frequency       -0.00       -0.00       -0.00       -0.00       -0.00        0.00
 P.Frequency      778.88      778.88      873.01      875.57      875.57     1091.19
 P.Frequency     1091.19     1138.42     1165.12     1212.78     1231.98     1231.98
 P.Frequency     1510.16     1510.16     1539.80     3115.42     3115.42     3128.96
 P.Frequency     3195.09     3195.09     3219.46

 Normal Eigenvalue ||           Projected Infra Red Intensities
  Mode   [cm**-1]  || [atomic units] [(debye/angs)**2] [(KM/mol)] [arbitrary]
 ------ ---------- || -------------- ----------------- ---------- -----------
    1       -0.000 ||    0.000000           0.000         0.000       0.000
    2       -0.000 ||    0.000000           0.000         0.000       0.000
    3       -0.000 ||    0.000000           0.000         0.000       0.000
    4       -0.000 ||    0.000000           0.000         0.000       0.000
    5       -0.000 ||    0.000000           0.000         0.000       0.000
    6        0.000 ||    0.000000           0.000         0.000       0.000
    7      778.879 ||    0.000000           0.000         0.000       0.000
    8      778.879 ||    0.000000           0.000         0.000       0.000
    9      873.012 ||    0.000286           0.007         0.279       0.363
   10      875.571 ||    0.024816           0.573        24.192      31.472
   11      875.571 ||    0.024816           0.573        24.192      31.472
   12     1091.188 ||    0.018148           0.419        17.692      23.016
   13     1091.188 ||    0.018148           0.419        17.692      23.016
   14     1138.422 ||    0.000000           0.000         0.000       0.000
   15     1165.125 ||    0.000000           0.000         0.000       0.000
   16     1212.785 ||    0.000000           0.000         0.000       0.000
   17     1231.977 ||    0.000000           0.000         0.000       0.000
   18     1231.977 ||    0.000000           0.000         0.000       0.000
   19     1510.155 ||    0.003157           0.073         3.078       4.004
   20     1510.155 ||    0.003157           0.073         3.078       4.004
   21     1539.795 ||    0.000000           0.000         0.000       0.000
   22     3115.417 ||    0.031593           0.729        30.799      40.067
   23     3115.417 ||    0.031593           0.729        30.799      40.067
   24     3128.961 ||    0.000000           0.000         0.000       0.000
   25     3195.093 ||    0.000000           0.000         0.000       0.000
   26     3195.093 ||    0.000000           0.000         0.000       0.000
   27     3219.456 ||    0.057180           1.319        55.742      72.517
 ----------------------------------------------------------------------------

         Total DFT energy =     -117.960079978598
      Atom:    1  H
           isotropic =      32.5767
      Atom:    2  H
           isotropic =      32.5766
      Atom:    3  H
           isotropic =      32.5899
      Atom:    4  H
           isotropic =      32.5899
      Atom:    5  H
           isotropic =      32.5584
      Atom:    6  H
           isotropic =      32.5598
 Total times  cpu:      263.4s     wall:      296.9s
