============================== echo of input deck ==============================
start

title "Molecule conformer 0"

memory total 4000 mb

echo
geometry units angstroms
   C     -0.7760    -0.3842    -0.1316
   C      0.7329    -0.4794    -0.0077
   C      0.0430     0.8636     0.1393
   H     -1.3338    -0.7670     0.7492
   H     -1.1570    -0.4662    -1.1716
   H      1.0879    -0.9199     0.9481
   H      1.2647    -0.6189    -0.9727
   H      0.1574     1.5365    -0.7369
   H     -0.0193     1.2355     1.1839
end

basis spherical
* library 6-311G
end

driver
  maxiter 500
  xyz final
end

relativistic
  zora on
  zora:cutoff_NMR 1d-8
  zora:cutoff 1d-30
end

dft
  direct
  grid fine
  xc B3LYP
  mult 1
  maxiter 1500
  noprint "final vectors analysis" multipole
end

task dft optimize

task dft freq

property
  shielding 6 4 5 6 7 8 9
end

cosmo
   solvent cdcl3
end

task dft property
================================================================================

         Total DFT energy =     -117.947913453643
@ Step       Energy      Delta E   Gmax     Grms     Xrms     Xmax   Walltime
@ ---- ---------------- -------- -------- -------- -------- -------- --------
@    0    -117.94791345  0.0D+00  0.01996  0.00735  0.00000  0.00000     12.6
         Total DFT energy =     -117.955489447043
         Total DFT energy =     -117.955845505371
@    1    -117.95584551 -7.9D-03  0.00757  0.00284  0.05329  0.10623     36.0
         Total DFT energy =     -117.957413095333
         Total DFT energy =     -117.957993865375
@    2    -117.95799387 -2.1D-03  0.00355  0.00118  0.03485  0.07274     61.3
         Total DFT energy =     -117.958162299283
         Total DFT energy =     -117.958170259793
@    3    -117.95817026 -1.8D-04  0.00077  0.00023  0.00825  0.01602     84.5
         Total DFT energy =     -117.958177493558
         Total DFT energy =     -117.958177675453
@    4    -117.95817768 -7.4D-06  0.00004  0.00002  0.00228  0.00381    102.9
         Total DFT energy =     -117.958177763196
         Total DFT energy =   -117.958177763196
@    5    -117.95817776 -8.8D-08  0.00000  0.00000  0.00017  0.00028    111.7
@    5    -117.95817776 -8.8D-08  0.00000  0.00000  0.00017  0.00028    111.7

 Output coordinates in angstroms (scale by  1.889725989 to convert to a.u.)

  No.       Tag          Charge          X              Y              Z
 ---- ---------------- ---------- -------------- -------------- --------------
    1 C                    6.0000    -0.74960344     0.45294256     0.00000000
    2 C                    6.0000    -0.01745805    -0.87564690     0.00000000
    3 C                    6.0000     0.76706148     0.42270434     0.00000000
    4 H                    1.0000    -1.25417749     0.75781976     0.90590533
    5 H                    1.0000    -1.25417749     0.75781976    -0.90590533
    6 H                    1.0000    -0.02920242    -1.46505945     0.90590533
    7 H                    1.0000    -0.02920242    -1.46505945    -0.90590533
    8 H                    1.0000     1.28337991     0.70723969    -0.90590533
    9 H                    1.0000     1.28337991     0.70723969     0.90590533

         Total DFT energy =     -117.958177763283
         Total DFT energy =     -117.958394799332
         Total DFT energy =     -117.958392599460
         Total DFT energy =     -117.958404889404
         Total DFT energy =     -117.958403513589
         Total DFT energy =     -117.958387445613
         Total DFT energy =     -117.958386776363
         Total DFT energy =     -117.958413254421
         Total DFT energy =     -117.958414793289
         Total DFT energy =     -117.958416321073
         Total DFT energy =     -117.958417208346
         Total DFT energy =     -117.958405471665
         Total DFT energy =     -117.958407600286
 Zero-Point correction to Energy  =   51.259 kcal/mol  (  0.081687 au)
 Thermal correction to Energy     =   53.349 kcal/mol  (  0.085017 au)
 Thermal correction to Enthalpy   =   53.941 kcal/mol  (  0.085960 au)
 Total Entropy                    =   57.909 cal/mol-K
   - Translational                =   37.119 cal/mol-K (mol. weight =  42.0469)
   - Rotational                   =   19.503 cal/mol-K (symmetry #  =        3)
   - Vibrational                  =    1.288 cal/mol-K
   - Translational                  =    2.979 cal/mol-K
   - Rotational                     =    2.979 cal/mol-K
   - Vibrational                    =    4.807 cal/mol-K
 P.Frequency       -0.00       -0.00       -0.00       -0.00        0.00        0.00
 P.Frequency      779.01      779.01      873.09      875.17      875.17     1091.19
 P.Frequency     1091.19     1138.79     1165.14     1212.23     1232.06     1232.06
 P.Frequency     1510.22     1510.22     1539.84     3115.40     3115.40     3128.84
 P.Frequency     3195.05     3195.05     3219.28

 Normal Eigenvalue ||           Projected Infra Red Intensities
  Mode   [cm**-1]  || [atomic units] [(debye/angs)**2] [(KM/mol)] [arbitrary]
 ------ ---------- || -------------- ----------------- ---------- -----------
    1       -0.000 ||    0.000000           0.000         0.000       0.000
    2       -0.000 ||    0.000000           0.000         0.000       0.000
    3       -0.000 ||    0.000000           0.000         0.000       0.000
    4       -0.000 ||    0.000000           0.000         0.000       0.000
    5        0.000 ||    0.000000           0.000         0.000       0.000
    6        0.000 ||    0.000000           0.000         0.000       0.000
    7      779.009 ||    0.000000           0.000         0.000       0.000
    8      779.009 ||    0.000000           0.000         0.000       0.000
    9      873.087 ||    0.000296           0.007         0.289       0.376
   10      875.168 ||    0.024860           0.574        24.234      31.520
   11      875.168 ||    0.024860           0.574        24.234      31.520
   12     1091.189 ||    0.018087           0.417        17.632      22.933
   13     1091.189 ||    0.018087           0.417        17.632      22.933
   14     1138.794 ||    0.000000           0.000         0.000       0.000
   15     1165.139 ||    0.000000           0.000         0.000       0.000
   16     1212.234 ||    0.000000           0.000         0.000       0.000
   17     1232.058 ||    0.000000           0.000         0.000       0.000
   18     1232.058 ||    0.000000           0.000         0.000       0.000
   19     1510.215 ||    0.003175           0.073         3.095       4.025
   20     1510.215 ||    0.003175           0.073         3.095       4.025
   21     1539.842 ||    0.000000           0.000         0.000       0.000
   22     3115.400 ||    0.031579           0.729        30.785      40.040
   23     3115.400 ||    0.031579           0.729        30.785      40.040
   24     3128.835 ||    0.000000           0.000         0.000       0.000
   25     3195.053 ||    0.000000           0.000         0.000       0.000
   26     3195.053 ||    0.000000           0.000         0.000       0.000
   27     3219.279 ||    0.057250           1.321        55.810      72.588
 ----------------------------------------------------------------------------

         Total DFT energy =     -117.960590631149
      Atom:    1  H
           isotropic =      32.5746
      Atom:    2  H
           isotropic =      32.5747
      Atom:    3  H
           isotropic =      32.5514
      Atom:    4  H
           isotropic =      32.5515
      Atom:    5  H
           isotropic =      32.5513
      Atom:    6  H
           isotropic =      32.5524
 Total times  cpu:      276.8s     wall:      322.1s
