============================== echo of input deck ==============================
start

title "Molecule conformer 0"

memory total 4000 mb

echo
geometry units angstroms
   C     -0.7361    -0.4702    -0.0659
   C     -0.0359     0.8746    -0.0179
   C      0.7721    -0.4052     0.0839
   H     -1.2788    -0.7382     0.8654
   H     -1.0847    -0.7698    -1.0770
   H      0.0396     1.3879    -0.9999
   H     -0.1550     1.4198     0.9423
   H      1.3366    -0.6653    -0.8366
   H      1.1424    -0.6336     1.1057
end

basis spherical
* library 6-311G
end

driver
  maxiter 500
  xyz final
end

relativistic
  zora on
  zora:cutoff_NMR 1d-8
  zora:cutoff 1d-30
end

dft
  direct
  grid fine
  xc B3LYP
  mult 1
  maxiter 1500
  noprint "final vectors analysis" multipole
end

task dft optimize

task dft freq

property
  shielding 6 4 5 6 7 8 9
end

cosmo
   solvent cdcl3
end

task dft property
================================================================================

         Total DFT energy =     -117.947913291456
@ Step       Energy      Delta E   Gmax     Grms     Xrms     Xmax   Walltime
@ ---- ---------------- -------- -------- -------- -------- -------- --------
@    0    -117.94791329  0.0D+00  0.01996  0.00735  0.00000  0.00000     12.8
         Total DFT energy =     -117.955490889683
         Total DFT energy =     -117.955846572223
@    1    -117.95584657 -7.9D-03  0.00757  0.00284  0.05329  0.10623     35.7
         Total DFT energy =     -117.957413086036
         Total DFT energy =     -117.957993389285
@    2    -117.95799339 -2.1D-03  0.00357  0.00118  0.03484  0.07026     60.9
         Total DFT energy =     -117.958162096179
         Total DFT energy =     -117.958170164704
@    3    -117.95817016 -1.8D-04  0.00076  0.00023  0.00825  0.01603     86.2
         Total DFT energy =     -117.958177341811
         Total DFT energy =     -117.958177512729
@    4    -117.95817751 -7.3D-06  0.00005  0.00002  0.00227  0.00364    103.2
         Total DFT energy =     -117.958177616960
         Total DFT energy =   -117.958177616960
@    5    -117.95817762 -1.0D-07  0.00000  0.00000  0.00017  0.00028    111.3
@    5    -117.95817762 -1.0D-07  0.00000  0.00000  0.00017  0.00028    111.3

 Output coordinates in angstroms (scale by  1.889725989 to convert to a.u.)

  No.       Tag          Charge          X              Y              Z
 ---- ---------------- ---------- -------------- -------------- --------------
    1 C                    6.0000    -0.84597066     0.22667716     0.00000000
    2 C                    6.0000     0.61929351     0.61929351     0.00000000
    3 C                    6.0000     0.22667716    -0.84597066     0.00000000
    4 H                    1.0000    -1.41540688     0.37925713     0.90590730
    5 H                    1.0000    -1.41540688     0.37925713    -0.90590730
    6 H                    1.0000     1.03614975     1.03614975    -0.90590730
    7 H                    1.0000     1.03614975     1.03614975     0.90590730
    8 H                    1.0000     0.37925713    -1.41540688    -0.90590730
    9 H                    1.0000     0.37925713    -1.41540688     0.90590730

         Total DFT energy =     -117.958177617006
         Total DFT energy =     -117.958408415461
         Total DFT energy =     -117.958407598163
         Total DFT energy =     -117.958389665167
         Total DFT energy =     -117.958392290092
         Total DFT energy =     -117.958387954351
         Total DFT energy =     -117.958387354593
         Total DFT energy =     -117.958417928598
         Total DFT energy =     -117.958418393816
         Total DFT energy =     -117.958414527782
         Total DFT energy =     -117.958412905971
         Total DFT energy =     -117.958406039627
         Total DFT energy =     -117.958408121986
 Zero-Point correction to Energy  =   51.260 kcal/mol  (  0.081688 au)
 Thermal correction to Energy     =   53.349 kcal/mol  (  0.085018 au)
 Thermal correction to Enthalpy   =   53.942 kcal/mol  (  0.085961 au)
 Total Entropy                    =   56.532 cal/mol-K
   - Translational                =   37.119 cal/mol-K (mol. weight =  42.0469)
   - Rotational                   =   18.126 cal/mol-K (symmetry #  =        6)
   - Vibrational                  =    1.287 cal/mol-K
   - Translational                  =    2.979 cal/mol-K
   - Rotational                     =    2.979 cal/mol-K
   - Vibrational                    =    4.806 cal/mol-K
 P.Frequency       -0.00        0.00        0.00        0.00        0.00        0.00
 P.Frequency      779.13      779.13      873.03      875.68      875.68     1090.45
 P.Frequency     1090.45     1138.89     1165.25     1212.41     1232.05     1232.05
 P.Frequency     1510.13     1510.13     1540.00     3115.40     3115.40     3129.00
 P.Frequency     3195.10     3195.10     3219.49

 Normal Eigenvalue ||           Projected Infra Red Intensities
  Mode   [cm**-1]  || [atomic units] [(debye/angs)**2] [(KM/mol)] [arbitrary]
 ------ ---------- || -------------- ----------------- ---------- -----------
    1       -0.000 ||    0.000000           0.000         0.000       0.000
    2        0.000 ||    0.000000           0.000         0.000       0.000
    3        0.000 ||    0.000000           0.000         0.000       0.000
    4        0.000 ||    0.000000           0.000         0.000       0.000
    5        0.000 ||    0.000000           0.000         0.000       0.000
    6        0.000 ||    0.000000           0.000         0.000       0.000
    7      779.129 ||    0.000000           0.000         0.000       0.000
    8      779.129 ||    0.000000           0.000         0.000       0.000
    9      873.032 ||    0.000285           0.007         0.278       0.361
   10      875.675 ||    0.024841           0.573        24.216      31.504
   11      875.675 ||    0.024841           0.573        24.216      31.504
   12     1090.445 ||    0.018141           0.419        17.685      23.008
   13     1090.445 ||    0.018141           0.419        17.685      23.008
   14     1138.890 ||    0.000000           0.000         0.000       0.000
   15     1165.250 ||    0.000000           0.000         0.000       0.000
   16     1212.408 ||    0.000000           0.000         0.000       0.000
   17     1232.048 ||    0.000000           0.000         0.000       0.000
   18     1232.048 ||    0.000000           0.000         0.000       0.000
   19     1510.132 ||    0.003138           0.072         3.059       3.980
   20     1510.132 ||    0.003138           0.072         3.059       3.980
   21     1539.996 ||    0.000000           0.000         0.000       0.000
   22     3115.405 ||    0.031598           0.729        30.803      40.075
   23     3115.405 ||    0.031598           0.729        30.803      40.075
   24     3128.999 ||    0.000000           0.000         0.000       0.000
   25     3195.097 ||    0.000000           0.000         0.000       0.000
   26     3195.097 ||    0.000000           0.000         0.000       0.000
   27     3219.488 ||    0.057167           1.319        55.729      72.503
 ----------------------------------------------------------------------------

         Total DFT energy =     -117.960040470883
      Atom:    1  H
           isotropic =      32.5800
      Atom:    2  H
           isotropic =      32.5801
      Atom:    3  H
           isotropic =      32.5907
      Atom:    4  H
           isotropic =      32.5907
      Atom:    5  H
           isotropic =      32.5579
      Atom:    6  H
           isotropic =      32.5593
 Total times  cpu:      269.4s     wall:      298.3s
