============================== echo of input deck ==============================
start

title "Molecule conformer 0"

memory total 4000 mb

echo
geometry units angstroms
   C     -0.2505     0.8271     0.1424
   C     -0.6016    -0.6280    -0.1040
   C      0.8520    -0.1991    -0.0384
   H     -0.3970     1.1632     1.1908
   H     -0.4070     1.4915    -0.7337
   H     -0.9705    -0.8437    -1.1291
   H     -0.9604    -1.1721     0.7953
   H      1.3725    -0.4836     0.9005
   H      1.3624    -0.1554    -1.0239
end

basis spherical
* library 6-311G
end

driver
  maxiter 500
  xyz final
end

relativistic
  zora on
  zora:cutoff_NMR 1d-8
  zora:cutoff 1d-30
end

dft
  direct
  grid fine
  xc B3LYP
  mult 1
  maxiter 1500
  noprint "final vectors analysis" multipole
end

task dft optimize

task dft freq

property
  shielding 6 4 5 6 7 8 9
end

cosmo
   solvent cdcl3
end

task dft property
================================================================================

         Total DFT energy =     -117.947913342886
@ Step       Energy      Delta E   Gmax     Grms     Xrms     Xmax   Walltime
@ ---- ---------------- -------- -------- -------- -------- -------- --------
@    0    -117.94791334  0.0D+00  0.01996  0.00735  0.00000  0.00000     12.7
         Total DFT energy =     -117.955488544591
         Total DFT energy =     -117.955844685030
@    1    -117.95584469 -7.9D-03  0.00758  0.00284  0.05329  0.10624     34.7
         Total DFT energy =     -117.957412757754
         Total DFT energy =     -117.957993174636
@    2    -117.95799317 -2.1D-03  0.00357  0.00118  0.03487  0.07269     58.6
         Total DFT energy =     -117.958162128969
         Total DFT energy =     -117.958170202818
@    3    -117.95817020 -1.8D-04  0.00078  0.00023  0.00826  0.01604     83.4
         Total DFT energy =     -117.958177475596
         Total DFT energy =     -117.958177655476
@    4    -117.95817766 -7.5D-06  0.00004  0.00002  0.00227  0.00379    100.9
         Total DFT energy =     -117.958177734580
         Total DFT energy =   -117.958177734580
@    5    -117.95817773 -7.9D-08  0.00001  0.00000  0.00016  0.00026    109.6
@    5    -117.95817773 -7.9D-08  0.00001  0.00000  0.00016  0.00026    109.6

 Output coordinates in angstroms (scale by  1.889725989 to convert to a.u.)

  No.       Tag          Charge          X              Y              Z
 ---- ---------------- ---------- -------------- -------------- --------------
    1 C                    6.0000    -0.04923563     0.87443198     0.00000000
    2 C                    6.0000    -0.73266249    -0.47985530     0.00000000
    3 C                    6.0000     0.78189812    -0.39457668     0.00000000
    4 H                    1.0000    -0.08238608     1.46302549     0.90590327
    5 H                    1.0000    -0.08238608     1.46302549    -0.90590327
    6 H                    1.0000    -1.22582420    -0.80286119    -0.90590327
    7 H                    1.0000    -1.22582420    -0.80286119     0.90590327
    8 H                    1.0000     1.30821028    -0.66016430     0.90590327
    9 H                    1.0000     1.30821028    -0.66016430    -0.90590327

         Total DFT energy =     -117.958177734663
         Total DFT energy =     -117.958394181236
         Total DFT energy =     -117.958391818361
         Total DFT energy =     -117.958404055728
         Total DFT energy =     -117.958405308943
         Total DFT energy =     -117.958386999533
         Total DFT energy =     -117.958387003111
         Total DFT energy =     -117.958413072874
         Total DFT energy =     -117.958414449032
         Total DFT energy =     -117.958417165038
         Total DFT energy =     -117.958416455004
         Total DFT energy =     -117.958407316529
         Total DFT energy =     -117.958405535780
 Zero-Point correction to Energy  =   51.257 kcal/mol  (  0.081684 au)
 Thermal correction to Energy     =   53.347 kcal/mol  (  0.085014 au)
 Thermal correction to Enthalpy   =   53.939 kcal/mol  (  0.085958 au)
 Total Entropy                    =   57.910 cal/mol-K
   - Translational                =   37.119 cal/mol-K (mol. weight =  42.0469)
   - Rotational                   =   19.503 cal/mol-K (symmetry #  =        3)
   - Vibrational                  =    1.288 cal/mol-K
   - Translational                  =    2.979 cal/mol-K
   - Rotational                     =    2.979 cal/mol-K
   - Vibrational                    =    4.809 cal/mol-K
 P.Frequency       -0.00        0.00        0.00        0.00        0.00        0.00
 P.Frequency      778.88      778.88      872.83      875.00      875.00     1091.14
 P.Frequency     1091.14     1138.00     1165.10     1212.90     1231.93     1231.93
 P.Frequency     1509.99     1509.99     1539.69     3115.46     3115.46     3129.04
 P.Frequency     3195.16     3195.16     3219.44

 Normal Eigenvalue ||           Projected Infra Red Intensities
  Mode   [cm**-1]  || [atomic units] [(debye/angs)**2] [(KM/mol)] [arbitrary]
 ------ ---------- || -------------- ----------------- ---------- -----------
    1       -0.000 ||    0.000000           0.000         0.000       0.000
    2        0.000 ||    0.000000           0.000         0.000       0.000
    3        0.000 ||    0.000000           0.000         0.000       0.000
    4        0.000 ||    0.000000           0.000         0.000       0.000
    5        0.000 ||    0.000000           0.000         0.000       0.000
    6        0.000 ||    0.000000           0.000         0.000       0.000
    7      778.878 ||    0.000000           0.000         0.000       0.000
    8      778.878 ||    0.000000           0.000         0.000       0.000
    9      872.833 ||    0.000294           0.007         0.287       0.373
   10      875.001 ||    0.024931           0.575        24.304      31.604
   11      875.001 ||    0.024931           0.575        24.304      31.604
   12     1091.144 ||    0.018028           0.416        17.574      22.853
   13     1091.144 ||    0.018028           0.416        17.574      22.853
   14     1137.998 ||    0.000000           0.000         0.000       0.000
   15     1165.101 ||    0.000000           0.000         0.000       0.000
   16     1212.896 ||    0.000000           0.000         0.000       0.000
   17     1231.930 ||    0.000000           0.000         0.000       0.000
   18     1231.930 ||    0.000000           0.000         0.000       0.000
   19     1509.986 ||    0.003145           0.073         3.066       3.987
   20     1509.986 ||    0.003145           0.073         3.066       3.987
   21     1539.687 ||    0.000000           0.000         0.000       0.000
   22     3115.459 ||    0.031603           0.729        30.809      40.063
   23     3115.459 ||    0.031603           0.729        30.809      40.063
   24     3129.039 ||    0.000000           0.000         0.000       0.000
   25     3195.158 ||    0.000000           0.000         0.000       0.000
   26     3195.158 ||    0.000000           0.000         0.000       0.000
   27     3219.443 ||    0.057279           1.321        55.839      72.612
 ----------------------------------------------------------------------------

         Total DFT energy =     -117.960550195023
      Atom:    1  H
           isotropic =      32.5536
      Atom:    2  H
           isotropic =      32.5535
      Atom:    3  H
           isotropic =      32.5770
      Atom:    4  H
           isotropic =      32.5770
      Atom:    5  H
           isotropic =      32.5493
      Atom:    6  H
           isotropic =      32.5535
 Total times  cpu:      272.2s     wall:      303.1s
