============================== echo of input deck ==============================
start

title "Molecule conformer 0"

memory total 4000 mb

echo
geometry units angstroms
   C      0.8370    -0.2578     0.0058
   C     -0.1956     0.8510    -0.0673
   C     -0.6414    -0.5932     0.0616
   H      1.3616    -0.3326     0.9818
   H      1.3250    -0.4949    -0.9633
   H     -0.3323     1.2847    -1.0806
   H     -0.2957     1.4470     0.8645
   H     -1.0476    -1.0332    -0.8738
   H     -1.0110    -0.8710     1.0714
end

basis spherical
* library 6-311G
end

driver
  maxiter 500
  xyz final
end

relativistic
  zora on
  zora:cutoff_NMR 1d-8
  zora:cutoff 1d-30
end

dft
  direct
  grid fine
  xc B3LYP
  mult 1
  maxiter 1500
  noprint "final vectors analysis" multipole
end

task dft optimize

task dft freq

property
  shielding 6 4 5 6 7 8 9
end

cosmo
   solvent cdcl3
end

task dft property
================================================================================

         Total DFT energy =     -117.947915450295
@ Step       Energy      Delta E   Gmax     Grms     Xrms     Xmax   Walltime
@ ---- ---------------- -------- -------- -------- -------- -------- --------
@    0    -117.94791545  0.0D+00  0.01995  0.00735  0.00000  0.00000     11.7
         Total DFT energy =     -117.955490410523
         Total DFT energy =     -117.955846479558
@    1    -117.95584648 -7.9D-03  0.00757  0.00284  0.05329  0.10622     36.7
         Total DFT energy =     -117.957413250015
         Total DFT energy =     -117.957993485594
@    2    -117.95799349 -2.1D-03  0.00356  0.00118  0.03485  0.07269     59.9
         Total DFT energy =     -117.958162240061
         Total DFT energy =     -117.958170329795
@    3    -117.95817033 -1.8D-04  0.00077  0.00023  0.00826  0.01605     82.8
         Total DFT energy =     -117.958177594572
         Total DFT energy =     -117.958177768561
@    4    -117.95817777 -7.4D-06  0.00004  0.00001  0.00226  0.00377    101.2
         Total DFT energy =     -117.958177845257
         Total DFT energy =   -117.958177845257
@    5    -117.95817785 -7.7D-08  0.00001  0.00000  0.00014  0.00024    109.9
@    5    -117.95817785 -7.7D-08  0.00001  0.00000  0.00014  0.00024    109.9

 Output coordinates in angstroms (scale by  1.889725989 to convert to a.u.)

  No.       Tag          Charge          X              Y              Z
 ---- ---------------- ---------- -------------- -------------- --------------
    1 C                    6.0000    -0.46648804    -0.74124359     0.00000000
    2 C                    6.0000     0.87517980    -0.03336870     0.00000000
    3 C                    6.0000    -0.40869176     0.77461229     0.00000000
    4 H                    1.0000    -0.78048617    -1.24018439     0.90590785
    5 H                    1.0000    -0.78048617    -1.24018439    -0.90590785
    6 H                    1.0000     1.46427428    -0.05582865    -0.90590785
    7 H                    1.0000     1.46427428    -0.05582865     0.90590785
    8 H                    1.0000    -0.68378811     1.29601305    -0.90590785
    9 H                    1.0000    -0.68378811     1.29601305     0.90590785

         Total DFT energy =     -117.958177845335
         Total DFT energy =     -117.958403781245
         Total DFT energy =     -117.958405140149
         Total DFT energy =     -117.958394530601
         Total DFT energy =     -117.958392190025
         Total DFT energy =     -117.958387378883
         Total DFT energy =     -117.958386762739
         Total DFT energy =     -117.958417211908
         Total DFT energy =     -117.958416394670
         Total DFT energy =     -117.958413151928
         Total DFT energy =     -117.958414660830
         Total DFT energy =     -117.958405451657
         Total DFT energy =     -117.958407540762
 Zero-Point correction to Energy  =   51.260 kcal/mol  (  0.081687 au)
 Thermal correction to Energy     =   53.349 kcal/mol  (  0.085017 au)
 Thermal correction to Enthalpy   =   53.941 kcal/mol  (  0.085961 au)
 Total Entropy                    =   57.909 cal/mol-K
   - Translational                =   37.119 cal/mol-K (mol. weight =  42.0469)
   - Rotational                   =   19.503 cal/mol-K (symmetry #  =        3)
   - Vibrational                  =    1.288 cal/mol-K
   - Translational                  =    2.979 cal/mol-K
   - Rotational                     =    2.979 cal/mol-K
   - Vibrational                    =    4.807 cal/mol-K
 P.Frequency       -0.00       -0.00       -0.00       -0.00        0.00        0.00
 P.Frequency      779.06      779.06      873.02      875.21      875.21     1091.18
 P.Frequency     1091.18     1138.76     1165.17     1212.27     1232.06     1232.06
 P.Frequency     1510.23     1510.23     1539.83     3115.43     3115.43     3128.85
 P.Frequency     3195.07     3195.07     3219.32

 Normal Eigenvalue ||           Projected Infra Red Intensities
  Mode   [cm**-1]  || [atomic units] [(debye/angs)**2] [(KM/mol)] [arbitrary]
 ------ ---------- || -------------- ----------------- ---------- -----------
    1       -0.000 ||    0.000000           0.000         0.000       0.000
    2       -0.000 ||    0.000000           0.000         0.000       0.000
    3       -0.000 ||    0.000000           0.000         0.000       0.000
    4       -0.000 ||    0.000000           0.000         0.000       0.000
    5        0.000 ||    0.000000           0.000         0.000       0.000
    6        0.000 ||    0.000000           0.000         0.000       0.000
    7      779.056 ||    0.000000           0.000         0.000       0.000
    8      779.056 ||    0.000000           0.000         0.000       0.000
    9      873.016 ||    0.000295           0.007         0.288       0.374
   10      875.209 ||    0.024854           0.573        24.229      31.512
   11      875.209 ||    0.024854           0.573        24.229      31.512
   12     1091.183 ||    0.018092           0.417        17.637      22.938
   13     1091.183 ||    0.018092           0.417        17.637      22.938
   14     1138.762 ||    0.000000           0.000         0.000       0.000
   15     1165.169 ||    0.000000           0.000         0.000       0.000
   16     1212.273 ||    0.000000           0.000         0.000       0.000
   17     1232.059 ||    0.000000           0.000         0.000       0.000
   18     1232.059 ||    0.000000           0.000         0.000       0.000
   19     1510.232 ||    0.003174           0.073         3.094       4.024
   20     1510.232 ||    0.003174           0.073         3.094       4.024
   21     1539.831 ||    0.000000           0.000         0.000       0.000
   22     3115.433 ||    0.031584           0.729        30.790      40.045
   23     3115.433 ||    0.031584           0.729        30.790      40.045
   24     3128.852 ||    0.000000           0.000         0.000       0.000
   25     3195.074 ||    0.000000           0.000         0.000       0.000
   26     3195.074 ||    0.000000           0.000         0.000       0.000
   27     3219.319 ||    0.057251           1.321        55.811      72.587
 ----------------------------------------------------------------------------

         Total DFT energy =     -117.960575259623
      Atom:    1  H
           isotropic =      32.5757
      Atom:    2  H
           isotropic =      32.5758
      Atom:    3  H
           isotropic =      32.5523
      Atom:    4  H
           isotropic =      32.5523
      Atom:    5  H
           isotropic =      32.5509
      Atom:    6  H
           isotropic =      32.5522
 Total times  cpu:      262.8s     wall:      297.9s
