============================== echo of input deck ==============================
start

title "Molecule conformer 0"

memory total 4000 mb

echo
geometry units angstroms
   C      0.7373    -0.4588    -0.1132
   C     -0.7580    -0.4165     0.1386
   C      0.0204     0.8752    -0.0253
   H      1.0209    -0.7601    -1.1439
   H      1.3462    -0.7123     0.7804
   H     -1.0538    -0.6443     1.1845
   H     -1.3793    -0.6923    -0.7397
   H      0.1956     1.4286     0.9215
   H     -0.1293     1.3806    -1.0029
end

basis spherical
* library 6-311G
end

driver
  maxiter 500
  xyz final
end

relativistic
  zora on
  zora:cutoff_NMR 1d-8
  zora:cutoff 1d-30
end

dft
  direct
  grid fine
  xc B3LYP
  mult 1
  maxiter 1500
  noprint "final vectors analysis" multipole
end

task dft optimize

task dft freq

property
  shielding 6 4 5 6 7 8 9
end

cosmo
   solvent cdcl3
end

task dft property
================================================================================

         Total DFT energy =     -117.947923831850
@ Step       Energy      Delta E   Gmax     Grms     Xrms     Xmax   Walltime
@ ---- ---------------- -------- -------- -------- -------- -------- --------
@    0    -117.94792383  0.0D+00  0.01995  0.00735  0.00000  0.00000     13.1
         Total DFT energy =     -117.955493152060
         Total DFT energy =     -117.955848936299
@    1    -117.95584894 -7.9D-03  0.00757  0.00284  0.05328  0.10620     36.5
         Total DFT energy =     -117.957414423920
         Total DFT energy =     -117.957993837585
@    2    -117.95799384 -2.1D-03  0.00356  0.00118  0.03481  0.07020     62.9
         Total DFT energy =     -117.958162139315
         Total DFT energy =     -117.958170116734
@    3    -117.95817012 -1.8D-04  0.00076  0.00023  0.00823  0.01599     83.2
         Total DFT energy =     -117.958177239091
         Total DFT energy =     -117.958177414159
@    4    -117.95817741 -7.3D-06  0.00004  0.00002  0.00226  0.00364    100.1
         Total DFT energy =     -117.958177509839
         Total DFT energy =   -117.958177509839
@    5    -117.95817751 -9.6D-08  0.00001  0.00000  0.00016  0.00027    107.3
@    5    -117.95817751 -9.6D-08  0.00001  0.00000  0.00016  0.00027    107.3

 Output coordinates in angstroms (scale by  1.889725989 to convert to a.u.)

  No.       Tag          Charge          X              Y              Z
 ---- ---------------- ---------- -------------- -------------- --------------
    1 C                    6.0000    -0.84597371     0.22667797     0.00000000
    2 C                    6.0000     0.61929573     0.61929573     0.00000000
    3 C                    6.0000     0.22667797    -0.84597371     0.00000000
    4 H                    1.0000    -1.41540563     0.37925680    -0.90591111
    5 H                    1.0000    -1.41540563     0.37925680     0.90591111
    6 H                    1.0000     1.03614883     1.03614883     0.90591111
    7 H                    1.0000     1.03614883     1.03614883    -0.90591111
    8 H                    1.0000     0.37925680    -1.41540563     0.90591111
    9 H                    1.0000     0.37925680    -1.41540563    -0.90591111

         Total DFT energy =     -117.958177509873
         Total DFT energy =     -117.958408400630
         Total DFT energy =     -117.958407606482
         Total DFT energy =     -117.958389705520
         Total DFT energy =     -117.958392244063
         Total DFT energy =     -117.958387626867
         Total DFT energy =     -117.958387674972
         Total DFT energy =     -117.958417949944
         Total DFT energy =     -117.958418366122
         Total DFT energy =     -117.958414454507
         Total DFT energy =     -117.958412972123
         Total DFT energy =     -117.958408011440
         Total DFT energy =     -117.958406142350
 Zero-Point correction to Energy  =   51.259 kcal/mol  (  0.081687 au)
 Thermal correction to Energy     =   53.349 kcal/mol  (  0.085017 au)
 Thermal correction to Enthalpy   =   53.941 kcal/mol  (  0.085961 au)
 Total Entropy                    =   56.532 cal/mol-K
   - Translational                =   37.119 cal/mol-K (mol. weight =  42.0469)
   - Rotational                   =   18.126 cal/mol-K (symmetry #  =        6)
   - Vibrational                  =    1.288 cal/mol-K
   - Translational                  =    2.979 cal/mol-K
   - Rotational                     =    2.979 cal/mol-K
   - Vibrational                    =    4.807 cal/mol-K
 P.Frequency       -0.00       -0.00        0.00        0.00        0.00        0.00
 P.Frequency      779.05      779.05      872.94      875.63      875.63     1090.36
 P.Frequency     1090.36     1138.89     1165.19     1212.36     1231.99     1231.99
 P.Frequency     1510.09     1510.09     1539.94     3115.46     3115.46     3129.08
 P.Frequency     3195.17     3195.17     3219.54

 Normal Eigenvalue ||           Projected Infra Red Intensities
  Mode   [cm**-1]  || [atomic units] [(debye/angs)**2] [(KM/mol)] [arbitrary]
 ------ ---------- || -------------- ----------------- ---------- -----------
    1       -0.000 ||    0.000000           0.000         0.000       0.000
    2       -0.000 ||    0.000000           0.000         0.000       0.000
    3        0.000 ||    0.000000           0.000         0.000       0.000
    4        0.000 ||    0.000000           0.000         0.000       0.000
    5        0.000 ||    0.000000           0.000         0.000       0.000
    6        0.000 ||    0.000000           0.000         0.000       0.000
    7      779.046 ||    0.000000           0.000         0.000       0.000
    8      779.046 ||    0.000000           0.000         0.000       0.000
    9      872.936 ||    0.000284           0.007         0.277       0.360
   10      875.632 ||    0.024849           0.573        24.224      31.511
   11      875.632 ||    0.024849           0.573        24.224      31.511
   12     1090.363 ||    0.018131           0.418        17.675      22.992
   13     1090.363 ||    0.018131           0.418        17.675      22.992
   14     1138.892 ||    0.000000           0.000         0.000       0.000
   15     1165.187 ||    0.000000           0.000         0.000       0.000
   16     1212.362 ||    0.000000           0.000         0.000       0.000
   17     1231.991 ||    0.000000           0.000         0.000       0.000
   18     1231.991 ||    0.000000           0.000         0.000       0.000
   19     1510.094 ||    0.003137           0.072         3.058       3.977
   20     1510.094 ||    0.003137           0.072         3.058       3.977
   21     1539.943 ||    0.000000           0.000         0.000       0.000
   22     3115.463 ||    0.031602           0.729        30.807      40.075
   23     3115.463 ||    0.031602           0.729        30.807      40.075
   24     3129.084 ||    0.000000           0.000         0.000       0.000
   25     3195.173 ||    0.000000           0.000         0.000       0.000
   26     3195.173 ||    0.000000           0.000         0.000       0.000
   27     3219.545 ||    0.057192           1.319        55.753      72.526
 ----------------------------------------------------------------------------

         Total DFT energy =     -117.960040514454
      Atom:    1  H
           isotropic =      32.5800
      Atom:    2  H
           isotropic =      32.5800
      Atom:    3  H
           isotropic =      32.5907
      Atom:    4  H
           isotropic =      32.5907
      Atom:    5  H
           isotropic =      32.5566
      Atom:    6  H
           isotropic =      32.5606
 Total times  cpu:      266.3s     wall:      299.2s
