============================== echo of input deck ==============================
start

title "Molecule conformer 0"

memory total 4000 mb

echo
geometry units angstroms
   C      0.8372    -0.2572     0.0071
   C     -0.1973     0.8507     0.0665
   C     -0.6399    -0.5935    -0.0736
   H      1.3096    -0.4966     0.9833
   H      1.3776    -0.3290    -0.9606
   H     -0.2827     1.4491    -0.8652
   H     -0.3506     1.2815     1.0786
   H     -1.0609    -1.0364     0.8539
   H     -0.9929    -0.8687    -1.0900
end

basis spherical
* library 6-311G
end

driver
  maxiter 500
  xyz final
end

relativistic
  zora on
  zora:cutoff_NMR 1d-8
  zora:cutoff 1d-30
end

dft
  direct
  grid fine
  xc B3LYP
  mult 1
  maxiter 1500
  noprint "final vectors analysis" multipole
end

task dft optimize

task dft freq

property
  shielding 6 4 5 6 7 8 9
end

cosmo
   solvent cdcl3
end

task dft property
================================================================================

         Total DFT energy =     -117.947912127184
@ Step       Energy      Delta E   Gmax     Grms     Xrms     Xmax   Walltime
@ ---- ---------------- -------- -------- -------- -------- -------- --------
@    0    -117.94791213  0.0D+00  0.01996  0.00735  0.00000  0.00000     11.8
         Total DFT energy =     -117.955487740806
         Total DFT energy =     -117.955843862205
@    1    -117.95584386 -7.9D-03  0.00758  0.00284  0.05329  0.10624     34.8
         Total DFT energy =     -117.957412558205
         Total DFT energy =     -117.957993546959
@    2    -117.95799355 -2.1D-03  0.00355  0.00118  0.03486  0.07029     59.9
         Total DFT energy =     -117.958161927495
         Total DFT energy =     -117.958169945259
@    3    -117.95816995 -1.8D-04  0.00077  0.00023  0.00826  0.01605     81.7
         Total DFT energy =     -117.958177234685
         Total DFT energy =     -117.958177409881
@    4    -117.95817741 -7.5D-06  0.00004  0.00002  0.00228  0.00366    100.1
         Total DFT energy =     -117.958177508159
         Total DFT energy =   -117.958177508159
@    5    -117.95817751 -9.8D-08  0.00001  0.00000  0.00015  0.00027    108.2
@    5    -117.95817751 -9.8D-08  0.00001  0.00000  0.00015  0.00027    108.2

 Output coordinates in angstroms (scale by  1.889725989 to convert to a.u.)

  No.       Tag          Charge          X              Y              Z
 ---- ---------------- ---------- -------------- -------------- --------------
    1 C                    6.0000     0.22667817    -0.84597445     0.00000000
    2 C                    6.0000     0.61929628     0.61929628     0.00000000
    3 C                    6.0000    -0.84597445     0.22667817     0.00000000
    4 H                    1.0000     0.37925580    -1.41540191     0.90591447
    5 H                    1.0000     0.37925580    -1.41540191    -0.90591447
    6 H                    1.0000     1.03614611     1.03614611    -0.90591447
    7 H                    1.0000     1.03614611     1.03614611     0.90591447
    8 H                    1.0000    -1.41540191     0.37925580     0.90591447
    9 H                    1.0000    -1.41540191     0.37925580    -0.90591447

         Total DFT energy =     -117.958177508226
         Total DFT energy =     -117.958389718884
         Total DFT energy =     -117.958392228948
         Total DFT energy =     -117.958408395781
         Total DFT energy =     -117.958407609273
         Total DFT energy =     -117.958387613260
         Total DFT energy =     -117.958387686117
         Total DFT energy =     -117.958414453510
         Total DFT energy =     -117.958412970961
         Total DFT energy =     -117.958417948005
         Total DFT energy =     -117.958418365796
         Total DFT energy =     -117.958408026435
         Total DFT energy =     -117.958406125173
 Zero-Point correction to Energy  =   51.259 kcal/mol  (  0.081687 au)
 Thermal correction to Energy     =   53.349 kcal/mol  (  0.085017 au)
 Thermal correction to Enthalpy   =   53.941 kcal/mol  (  0.085961 au)
 Total Entropy                    =   56.532 cal/mol-K
   - Translational                =   37.119 cal/mol-K (mol. weight =  42.0469)
   - Rotational                   =   18.126 cal/mol-K (symmetry #  =        6)
   - Vibrational                  =    1.288 cal/mol-K
   - Translational                  =    2.979 cal/mol-K
   - Rotational                     =    2.979 cal/mol-K
   - Vibrational                    =    4.807 cal/mol-K
 P.Frequency        0.00        0.00        0.00        0.00        0.00        0.00
 P.Frequency      779.06      779.06      872.95      875.63      875.63     1090.37
 P.Frequency     1090.37     1138.89     1165.20     1212.36     1232.00     1232.00
 P.Frequency     1510.09     1510.09     1539.94     3115.45     3115.45     3129.07
 P.Frequency     3195.17     3195.17     3219.54

 Normal Eigenvalue ||           Projected Infra Red Intensities
  Mode   [cm**-1]  || [atomic units] [(debye/angs)**2] [(KM/mol)] [arbitrary]
 ------ ---------- || -------------- ----------------- ---------- -----------
    1        0.000 ||    0.000000           0.000         0.000       0.000
    2        0.000 ||    0.000000           0.000         0.000       0.000
    3        0.000 ||    0.000000           0.000         0.000       0.000
    4        0.000 ||    0.000000           0.000         0.000       0.000
    5        0.000 ||    0.000000           0.000         0.000       0.000
    6        0.000 ||    0.000000           0.000         0.000       0.000
    7      779.059 ||    0.000000           0.000         0.000       0.000
    8      779.059 ||    0.000000           0.000         0.000       0.000
    9      872.950 ||    0.000284           0.007         0.277       0.360
   10      875.629 ||    0.024849           0.573        24.224      31.512
   11      875.629 ||    0.024849           0.573        24.224      31.512
   12     1090.368 ||    0.018133           0.418        17.677      22.995
   13     1090.368 ||    0.018133           0.418        17.677      22.995
   14     1138.894 ||    0.000000           0.000         0.000       0.000
   15     1165.196 ||    0.000000           0.000         0.000       0.000
   16     1212.361 ||    0.000000           0.000         0.000       0.000
   17     1231.995 ||    0.000000           0.000         0.000       0.000
   18     1231.995 ||    0.000000           0.000         0.000       0.000
   19     1510.094 ||    0.003137           0.072         3.058       3.978
   20     1510.094 ||    0.003137           0.072         3.058       3.978
   21     1539.945 ||    0.000000           0.000         0.000       0.000
   22     3115.454 ||    0.031600           0.729        30.805      40.073
   23     3115.454 ||    0.031600           0.729        30.805      40.073
   24     3129.074 ||    0.000000           0.000         0.000       0.000
   25     3195.169 ||    0.000000           0.000         0.000       0.000
   26     3195.169 ||    0.000000           0.000         0.000       0.000
   27     3219.542 ||    0.057187           1.319        55.749      72.521
 ----------------------------------------------------------------------------

         Total DFT energy =     -117.960040551267
      Atom:    1  H
           isotropic =      32.5800
      Atom:    2  H
           isotropic =      32.5800
      Atom:    3  H
           isotropic =      32.5907
      Atom:    4  H
           isotropic =      32.5907
      Atom:    5  H
           isotropic =      32.5567
      Atom:    6  H
           isotropic =      32.5605
 Total times  cpu:      269.9s     wall:      295.3s
