============================== echo of input deck ==============================
start

title "Molecule conformer 0"

memory total 4000 mb

echo
geometry units angstroms
   C     -1.1676     0.4518    -0.2937
   C      0.1447     0.6172     0.4390
   C     -0.1640    -0.6786    -0.3278
   C      1.2560    -0.1717    -0.2157
   H     -1.2281     1.0272    -1.2407
   H     -2.0480     0.2749     0.3602
   H      0.0563     0.4100     1.5286
   H     -0.3934    -1.4779     0.4114
   H      1.6433     0.2881    -1.1486
   H      1.9008    -0.7410     0.4873
end

basis spherical
* library 6-311G
end

driver
  maxiter 500
  xyz final
end

relativistic
  zora on
  zora:cutoff_NMR 1d-8
  zora:cutoff 1d-30
end

dft
  direct
  grid fine
  xc B3LYP
  mult 1
  maxiter 1500
  noprint "final vectors analysis" multipole
end

task dft optimize

task dft freq

property
  shielding 6 5 6 7 8 9 10
end

cosmo
   solvent cdcl3
end

task dft property
================================================================================

         Total DFT energy =     -155.978903308155
@ Step       Energy      Delta E   Gmax     Grms     Xrms     Xmax   Walltime
@ ---- ---------------- -------- -------- -------- -------- -------- --------
@    0    -155.97890331  0.0D+00  0.02139  0.00708  0.00000  0.00000     20.5
         Total DFT energy =     -155.998164531002
         Total DFT energy =     -156.003247105979
@    1    -156.00324711 -2.4D-02  0.02556  0.00569  0.10092  0.21830     56.3
         Total DFT energy =     -156.009171129233
         Total DFT energy =     -156.010363598118
@    2    -156.01036360 -7.1D-03  0.00805  0.00200  0.05098  0.10496     89.7
         Total DFT energy =     -156.012371746159
         Total DFT energy =     -156.013604664179
@    3    -156.01360466 -3.2D-03  0.00540  0.00148  0.07156  0.18809    122.9
         Total DFT energy =     -156.014994795034
         Total DFT energy =     -156.016414012638
@    4    -156.01641401 -2.8D-03  0.00493  0.00157  0.05550  0.11154    157.1
         Total DFT energy =     -156.017250964111
         Total DFT energy =     -156.017777972667
@    5    -156.01777797 -1.4D-03  0.00383  0.00099  0.03600  0.09525    190.3
         Total DFT energy =     -156.018428275347
         Total DFT energy =     -156.018629979417
@    6    -156.01862998 -8.5D-04  0.00088  0.00043  0.03805  0.10732    223.5
         Total DFT energy =     -156.018942413364
         Total DFT energy =     -156.019318910584
@    7    -156.01931891 -6.9D-04  0.00386  0.00119  0.03659  0.08846    254.2
         Total DFT energy =     -156.019792474852
         Total DFT energy =     -156.019946516838
@    8    -156.01994652 -6.3D-04  0.00107  0.00029  0.02767  0.06559    288.9
         Total DFT energy =     -156.020002923618
         Total DFT energy =   -156.020002923618
@    9    -156.02000292 -5.6D-05  0.00023  0.00007  0.00771  0.01835    310.0
         Total DFT energy =     -156.020004874670
         Total DFT energy =   -156.020004874670
@   10    -156.02000487 -2.0D-06  0.00004  0.00002  0.00149  0.00469    323.9
         Total DFT energy =     -156.020005345888
         Total DFT energy =   -156.020005345888
@   11    -156.02000535 -4.7D-07  0.00003  0.00001  0.00043  0.00100    335.3
@   11    -156.02000535 -4.7D-07  0.00003  0.00001  0.00043  0.00100    335.3

 Output coordinates in angstroms (scale by  1.889725989 to convert to a.u.)

  No.       Tag          Charge          X              Y              Z
 ---- ---------------- ---------- -------------- -------------- --------------
    1 C                    6.0000     0.00000000    -1.14331888     0.23120185
    2 C                    6.0000     0.75478101     0.00000000    -0.40742826
    3 C                    6.0000    -0.75478101     0.00000000    -0.40742826
    4 C                    6.0000     0.00000000     1.14331888     0.23120185
    5 H                    1.0000     0.00000000    -1.23964172     1.31364161
    6 H                    1.0000     0.00000000    -2.08934763    -0.29668317
    7 H                    1.0000     1.45318671     0.00000000    -1.22367347
    8 H                    1.0000    -1.45318671     0.00000000    -1.22367347
    9 H                    1.0000     0.00000000     1.23964172     1.31364161
   10 H                    1.0000     0.00000000     2.08934763    -0.29668317

         Total DFT energy =     -156.020005346385
         Total DFT energy =     -156.020140145501
         Total DFT energy =     -156.020142880639
         Total DFT energy =     -156.020149748803
         Total DFT energy =     -156.020148700992
         Total DFT energy =     -156.020145217106
         Total DFT energy =     -156.020144879334
         Total DFT energy =     -156.020157018080
         Total DFT energy =     -156.020156068302
         Total DFT energy =     -156.020135818238
         Total DFT energy =     -156.020133417512
         Total DFT energy =     -156.020135261033
         Total DFT energy =     -156.020137199153
         Total DFT energy =     -156.020159104804
         Total DFT energy =     -156.020158195928
         Total DFT energy =     -156.020165059659
         Total DFT energy =     -156.020165192362
         Total DFT energy =     -156.020156667654
         Total DFT energy =     -156.020155651204
         Total DFT energy =     -156.020165002427
         Total DFT energy =     -156.020165276996
         Total DFT energy =     -156.020164252734
         Total DFT energy =     -156.020164510894
         Total DFT energy =     -156.020150244327
         Total DFT energy =     -156.020150829346
         Total DFT energy =     -156.020165213217
         Total DFT energy =     -156.020165606452
         Total DFT energy =     -156.020153003615
         Total DFT energy =     -156.020153444114
         Total DFT energy =     -156.020161673795
         Total DFT energy =     -156.020160165991
 Zero-Point correction to Energy  =   54.351 kcal/mol  (  0.086614 au)
 Thermal correction to Energy     =   56.687 kcal/mol  (  0.090336 au)
 Thermal correction to Enthalpy   =   57.279 kcal/mol  (  0.091280 au)
 Total Entropy                    =   61.940 cal/mol-K
   - Translational                =   37.867 cal/mol-K (mol. weight =  54.0469)
   - Rotational                   =   21.638 cal/mol-K (symmetry #  =        2)
   - Vibrational                  =    2.436 cal/mol-K
   - Translational                  =    2.979 cal/mol-K
   - Rotational                     =    2.979 cal/mol-K
   - Vibrational                    =    7.192 cal/mol-K
 P.Frequency       -0.00       -0.00        0.00        0.00        0.00        0.00
 P.Frequency      431.63      724.21      746.35      837.93      839.78      944.83
 P.Frequency      966.99     1023.46     1097.32     1113.89     1127.00     1170.19
 P.Frequency     1182.37     1202.07     1289.30     1313.40     1524.40     1552.58
 P.Frequency     3062.89     3066.34     3164.99     3165.44     3236.43     3253.63

 Normal Eigenvalue ||           Projected Infra Red Intensities
  Mode   [cm**-1]  || [atomic units] [(debye/angs)**2] [(KM/mol)] [arbitrary]
 ------ ---------- || -------------- ----------------- ---------- -----------
    1       -0.000 ||    0.000009           0.000         0.009       0.009
    2       -0.000 ||    0.000069           0.002         0.068       0.068
    3        0.000 ||    0.000167           0.004         0.163       0.163
    4        0.000 ||    0.000290           0.007         0.283       0.284
    5        0.000 ||    0.000476           0.011         0.464       0.466
    6        0.000 ||    0.000479           0.011         0.467       0.469
    7      431.626 ||    0.001456           0.034         1.419       1.426
    8      724.214 ||    0.008361           0.193         8.150       8.189
    9      746.349 ||    0.077677           1.792        75.723      76.079
   10      837.926 ||    0.000014           0.000         0.014       0.014
   11      839.777 ||    0.000000           0.000         0.000       0.000
   12      944.830 ||    0.000000           0.000         0.000       0.000
   13      966.993 ||    0.000068           0.002         0.067       0.067
   14     1023.457 ||    0.006147           0.142         5.992       6.020
   15     1097.315 ||    0.001235           0.028         1.204       1.209
   16     1113.891 ||    0.000005           0.000         0.005       0.005
   17     1126.997 ||    0.000000           0.000         0.000       0.000
   18     1170.189 ||    0.000396           0.009         0.386       0.388
   19     1182.373 ||    0.032182           0.742        31.372      31.520
   20     1202.067 ||    0.000000           0.000         0.000       0.000
   21     1289.295 ||    0.002242           0.052         2.186       2.196
   22     1313.403 ||    0.000381           0.009         0.371       0.373
   23     1524.400 ||    0.000169           0.004         0.165       0.166
   24     1552.580 ||    0.000890           0.021         0.867       0.871
   25     3062.890 ||    0.060737           1.401        59.209      59.487
   26     3066.341 ||    0.046379           1.070        45.212      45.425
   27     3164.989 ||    0.037728           0.870        36.779      36.951
   28     3165.435 ||    0.016488           0.380        16.073      16.149
   29     3236.428 ||    0.006142           0.142         5.988       6.016
   30     3253.630 ||    0.006116           0.141         5.962       5.990
 ----------------------------------------------------------------------------

         Total DFT energy =     -156.022697214897
      Atom:    1  H
           isotropic =      32.0337
      Atom:    2  H
           isotropic =      31.4527
      Atom:    3  H
           isotropic =      31.4456
      Atom:    4  H
           isotropic =      31.4291
      Atom:    5  H
           isotropic =      32.0163
      Atom:    6  H
           isotropic =      31.4343
 Total times  cpu:      892.2s     wall:      903.7s
