============================== echo of input deck ==============================
start

title "Molecule conformer 0"

memory total 4000 mb

echo
geometry units angstroms
   C     -1.2329    -0.2727    -0.2432
   C      0.0045    -0.4855     0.5991
   C     -0.0118     0.5781    -0.5102
   C      1.2666    -0.1508    -0.1634
   H     -1.4020    -1.0658    -1.0009
   H     -2.0643     0.2529     0.2732
   H     -0.0522     0.0320     1.5825
   H     -0.0758     1.5815    -0.0338
   H      1.5597    -0.9211    -0.9067
   H      2.0083     0.4515     0.4034
end

basis spherical
* library 6-311G
end

driver
  maxiter 500
  xyz final
end

relativistic
  zora on
  zora:cutoff_NMR 1d-8
  zora:cutoff 1d-30
end

dft
  direct
  grid fine
  xc B3LYP
  mult 1
  maxiter 1500
  noprint "final vectors analysis" multipole
end

task dft optimize

task dft freq

property
  shielding 6 5 6 7 8 9 10
end

cosmo
   solvent cdcl3
end

task dft property
================================================================================

         Total DFT energy =     -155.978904259054
@ Step       Energy      Delta E   Gmax     Grms     Xrms     Xmax   Walltime
@ ---- ---------------- -------- -------- -------- -------- -------- --------
@    0    -155.97890426  0.0D+00  0.02142  0.00708  0.00000  0.00000     16.5
         Total DFT energy =     -155.998176397495
         Total DFT energy =     -156.003249452613
@    1    -156.00324945 -2.4D-02  0.02555  0.00568  0.10091  0.21822     53.0
         Total DFT energy =     -156.009171658385
         Total DFT energy =     -156.010364804037
@    2    -156.01036480 -7.1D-03  0.00805  0.00200  0.05100  0.10494     87.7
         Total DFT energy =     -156.012372548333
         Total DFT energy =     -156.013604957540
@    3    -156.01360496 -3.2D-03  0.00540  0.00148  0.07157  0.18808    121.0
         Total DFT energy =     -156.014995477801
         Total DFT energy =     -156.016415956777
@    4    -156.01641596 -2.8D-03  0.00494  0.00157  0.05558  0.11175    155.7
         Total DFT energy =     -156.017252250359
         Total DFT energy =     -156.017777865974
@    5    -156.01777787 -1.4D-03  0.00381  0.00099  0.03592  0.09497    188.3
         Total DFT energy =     -156.018428096366
         Total DFT energy =     -156.018630134225
@    6    -156.01863013 -8.5D-04  0.00088  0.00043  0.03808  0.10745    222.9
         Total DFT energy =     -156.018942595829
         Total DFT energy =     -156.019318072589
@    7    -156.01931807 -6.9D-04  0.00385  0.00119  0.03658  0.08850    256.6
         Total DFT energy =     -156.019791766571
         Total DFT energy =     -156.019946365815
@    8    -156.01994637 -6.3D-04  0.00107  0.00029  0.02771  0.06575    291.5
         Total DFT energy =     -156.020002900485
         Total DFT energy =   -156.020002900485
@    9    -156.02000290 -5.7D-05  0.00023  0.00007  0.00771  0.01834    312.5
         Total DFT energy =     -156.020004864095
         Total DFT energy =   -156.020004864095
@   10    -156.02000486 -2.0D-06  0.00004  0.00002  0.00149  0.00469    326.5
         Total DFT energy =     -156.020005340284
         Total DFT energy =   -156.020005340284
@   11    -156.02000534 -4.8D-07  0.00003  0.00001  0.00043  0.00101    336.8
@   11    -156.02000534 -4.8D-07  0.00003  0.00001  0.00043  0.00101    336.8

 Output coordinates in angstroms (scale by  1.889725989 to convert to a.u.)

  No.       Tag          Charge          X              Y              Z
 ---- ---------------- ---------- -------------- -------------- --------------
    1 C                    6.0000     0.00000000     1.14331820    -0.23120554
    2 C                    6.0000    -0.75478091     0.00000000     0.40742413
    3 C                    6.0000     0.75478091     0.00000000     0.40742413
    4 C                    6.0000     0.00000000    -1.14331820    -0.23120554
    5 H                    1.0000     0.00000000     1.23964138    -1.31364530
    6 H                    1.0000     0.00000000     2.08934602     0.29668144
    7 H                    1.0000    -1.45318552     0.00000000     1.22367024
    8 H                    1.0000     1.45318552     0.00000000     1.22367024
    9 H                    1.0000     0.00000000    -1.23964138    -1.31364530
   10 H                    1.0000     0.00000000    -2.08934602     0.29668144

         Total DFT energy =     -156.020005340871
         Total DFT energy =     -156.020142470767
         Total DFT energy =     -156.020140498299
         Total DFT energy =     -156.020149616911
         Total DFT energy =     -156.020148774808
         Total DFT energy =     -156.020144764410
         Total DFT energy =     -156.020145270307
         Total DFT energy =     -156.020156911840
         Total DFT energy =     -156.020156113444
         Total DFT energy =     -156.020133012620
         Total DFT energy =     -156.020136155746
         Total DFT energy =     -156.020136964280
         Total DFT energy =     -156.020135432465
         Total DFT energy =     -156.020158195348
         Total DFT energy =     -156.020159045693
         Total DFT energy =     -156.020165010850
         Total DFT energy =     -156.020165178810
         Total DFT energy =     -156.020155588362
         Total DFT energy =     -156.020156671717
         Total DFT energy =     -156.020165087921
         Total DFT energy =     -156.020165128788
         Total DFT energy =     -156.020164441322
         Total DFT energy =     -156.020164259583
         Total DFT energy =     -156.020150798834
         Total DFT energy =     -156.020150214489
         Total DFT energy =     -156.020165372361
         Total DFT energy =     -156.020165384733
         Total DFT energy =     -156.020153377754
         Total DFT energy =     -156.020153008622
         Total DFT energy =     -156.020160091923
         Total DFT energy =     -156.020161686067
 Zero-Point correction to Energy  =   54.351 kcal/mol  (  0.086614 au)
 Thermal correction to Energy     =   56.686 kcal/mol  (  0.090336 au)
 Thermal correction to Enthalpy   =   57.279 kcal/mol  (  0.091279 au)
 Total Entropy                    =   61.941 cal/mol-K
   - Translational                =   37.867 cal/mol-K (mol. weight =  54.0469)
   - Rotational                   =   21.638 cal/mol-K (symmetry #  =        2)
   - Vibrational                  =    2.436 cal/mol-K
   - Translational                  =    2.979 cal/mol-K
   - Rotational                     =    2.979 cal/mol-K
   - Vibrational                    =    7.192 cal/mol-K
 P.Frequency        0.00        0.00        0.00        0.00        0.00        0.00
 P.Frequency      431.51      724.24      746.28      837.89      839.63      944.94
 P.Frequency      966.87     1023.38     1097.34     1113.88     1127.00     1170.26
 P.Frequency     1182.47     1202.02     1289.28     1313.33     1524.45     1552.61
 P.Frequency     3062.91     3066.39     3165.01     3165.44     3236.39     3253.63

 Normal Eigenvalue ||           Projected Infra Red Intensities
  Mode   [cm**-1]  || [atomic units] [(debye/angs)**2] [(KM/mol)] [arbitrary]
 ------ ---------- || -------------- ----------------- ---------- -----------
    1        0.000 ||    0.000009           0.000         0.009       0.009
    2        0.000 ||    0.000168           0.004         0.163       0.164
    3        0.000 ||    0.000070           0.002         0.068       0.068
    4        0.000 ||    0.000291           0.007         0.284       0.285
    5        0.000 ||    0.000478           0.011         0.466       0.468
    6        0.000 ||    0.000479           0.011         0.467       0.469
    7      431.513 ||    0.001459           0.034         1.422       1.429
    8      724.244 ||    0.008364           0.193         8.154       8.191
    9      746.284 ||    0.077727           1.793        75.772      76.116
   10      837.887 ||    0.000013           0.000         0.013       0.013
   11      839.631 ||    0.000000           0.000         0.000       0.000
   12      944.939 ||    0.000000           0.000         0.000       0.000
   13      966.871 ||    0.000068           0.002         0.066       0.066
   14     1023.384 ||    0.006156           0.142         6.001       6.028
   15     1097.338 ||    0.001234           0.028         1.203       1.209
   16     1113.880 ||    0.000005           0.000         0.005       0.005
   17     1127.000 ||    0.000000           0.000         0.000       0.000
   18     1170.258 ||    0.000378           0.009         0.369       0.370
   19     1182.471 ||    0.032237           0.744        31.427      31.569
   20     1202.018 ||    0.000000           0.000         0.000       0.000
   21     1289.283 ||    0.002244           0.052         2.188       2.198
   22     1313.328 ||    0.000382           0.009         0.372       0.374
   23     1524.452 ||    0.000171           0.004         0.167       0.168
   24     1552.607 ||    0.000891           0.021         0.868       0.872
   25     3062.909 ||    0.060681           1.400        59.155      59.423
   26     3066.391 ||    0.046254           1.067        45.091      45.295
   27     3165.011 ||    0.037810           0.872        36.859      37.026
   28     3165.444 ||    0.016492           0.380        16.077      16.150
   29     3236.389 ||    0.006197           0.143         6.041       6.069
   30     3253.633 ||    0.006091           0.141         5.938       5.965
 ----------------------------------------------------------------------------

         Total DFT energy =     -156.022697191950
      Atom:    1  H
           isotropic =      32.0320
      Atom:    2  H
           isotropic =      31.4506
      Atom:    3  H
           isotropic =      31.4467
      Atom:    4  H
           isotropic =      31.4281
      Atom:    5  H
           isotropic =      32.0181
      Atom:    6  H
           isotropic =      31.4364
 Total times  cpu:      900.9s     wall:      897.4s
