============================== echo of input deck ==============================
start

title "Molecule conformer 0"

memory total 4000 mb

echo
geometry units angstroms
   C      1.2060    -0.2274    -0.3840
   C      0.0507    -0.5522     0.5358
   C     -0.0354     0.6340    -0.4378
   C     -1.2760    -0.1458    -0.0650
   H      2.0802     0.2439     0.1137
   H      1.3062    -0.9244    -1.2418
   H      0.1960    -0.1526     1.5640
   H      0.0705     1.5755     0.1455
   H     -1.6345    -0.8279    -0.8637
   H     -1.9638     0.3770     0.6333
end

basis spherical
* library 6-311G
end

driver
  maxiter 500
  xyz final
end

relativistic
  zora on
  zora:cutoff_NMR 1d-8
  zora:cutoff 1d-30
end

dft
  direct
  grid fine
  xc B3LYP
  mult 1
  maxiter 1500
  noprint "final vectors analysis" multipole
end

task dft optimize

task dft freq

property
  shielding 6 5 6 7 8 9 10
end

cosmo
   solvent cdcl3
end

task dft property
================================================================================

         Total DFT energy =     -155.978910066042
@ Step       Energy      Delta E   Gmax     Grms     Xrms     Xmax   Walltime
@ ---- ---------------- -------- -------- -------- -------- -------- --------
@    0    -155.97891007  0.0D+00  0.02139  0.00708  0.00000  0.00000     19.9
         Total DFT energy =     -155.998169934621
         Total DFT energy =     -156.003249068029
@    1    -156.00324907 -2.4D-02  0.02555  0.00568  0.10092  0.21826     57.9
         Total DFT energy =     -156.009171908678
         Total DFT energy =     -156.010364739275
@    2    -156.01036474 -7.1D-03  0.00805  0.00200  0.05099  0.10496     93.3
         Total DFT energy =     -156.012372519909
         Total DFT energy =     -156.013604963797
@    3    -156.01360496 -3.2D-03  0.00540  0.00148  0.07156  0.18808    126.4
         Total DFT energy =     -156.014995039545
         Total DFT energy =     -156.016414542917
@    4    -156.01641454 -2.8D-03  0.00493  0.00157  0.05552  0.11159    160.6
         Total DFT energy =     -156.017251342764
         Total DFT energy =     -156.017777971239
@    5    -156.01777797 -1.4D-03  0.00382  0.00099  0.03597  0.09516    193.7
         Total DFT energy =     -156.018428248711
         Total DFT energy =     -156.018630130255
@    6    -156.01863013 -8.5D-04  0.00088  0.00043  0.03806  0.10734    225.6
         Total DFT energy =     -156.018942603819
         Total DFT energy =     -156.019319250466
@    7    -156.01931925 -6.9D-04  0.00386  0.00119  0.03660  0.08849    260.0
         Total DFT energy =     -156.019792632671
         Total DFT energy =     -156.019946517540
@    8    -156.01994652 -6.3D-04  0.00107  0.00029  0.02766  0.06557    291.9
         Total DFT energy =     -156.020002912171
         Total DFT energy =   -156.020002912171
@    9    -156.02000291 -5.6D-05  0.00023  0.00007  0.00771  0.01836    311.7
         Total DFT energy =     -156.020004868956
         Total DFT energy =   -156.020004868956
@   10    -156.02000487 -2.0D-06  0.00004  0.00002  0.00149  0.00469    326.4
         Total DFT energy =     -156.020005341152
         Total DFT energy =   -156.020005341152
@   11    -156.02000534 -4.7D-07  0.00003  0.00001  0.00043  0.00100    337.6
@   11    -156.02000534 -4.7D-07  0.00003  0.00001  0.00043  0.00100    337.6

 Output coordinates in angstroms (scale by  1.889725989 to convert to a.u.)

  No.       Tag          Charge          X              Y              Z
 ---- ---------------- ---------- -------------- -------------- --------------
    1 C                    6.0000     0.00000000    -1.14331879    -0.23120957
    2 C                    6.0000    -0.75478096     0.00000000     0.40742031
    3 C                    6.0000     0.75478096     0.00000000     0.40742031
    4 C                    6.0000     0.00000000     1.14331879    -0.23120957
    5 H                    1.0000     0.00000000    -2.08934722     0.29667626
    6 H                    1.0000     0.00000000    -1.23964237    -1.31364937
    7 H                    1.0000    -1.45318624     0.00000000     1.22366590
    8 H                    1.0000     1.45318624     0.00000000     1.22366590
    9 H                    1.0000     0.00000000     1.23964237    -1.31364937
   10 H                    1.0000     0.00000000     2.08934722     0.29667626

         Total DFT energy =     -156.020005341662
         Total DFT energy =     -156.020142358001
         Total DFT energy =     -156.020140512915
         Total DFT energy =     -156.020150093959
         Total DFT energy =     -156.020148198443
         Total DFT energy =     -156.020144700777
         Total DFT energy =     -156.020145235118
         Total DFT energy =     -156.020157072048
         Total DFT energy =     -156.020155854861
         Total DFT energy =     -156.020135685826
         Total DFT energy =     -156.020133389697
         Total DFT energy =     -156.020137178835
         Total DFT energy =     -156.020135121063
         Total DFT energy =     -156.020158150498
         Total DFT energy =     -156.020158991301
         Total DFT energy =     -156.020165127679
         Total DFT energy =     -156.020164963838
         Total DFT energy =     -156.020155529350
         Total DFT energy =     -156.020156631200
         Total DFT energy =     -156.020165111620
         Total DFT energy =     -156.020165007055
         Total DFT energy =     -156.020164163546
         Total DFT energy =     -156.020164439472
         Total DFT energy =     -156.020150754549
         Total DFT energy =     -156.020150158259
         Total DFT energy =     -156.020165457704
         Total DFT energy =     -156.020165201362
         Total DFT energy =     -156.020152915739
         Total DFT energy =     -156.020153371324
         Total DFT energy =     -156.020160089328
         Total DFT energy =     -156.020161589892
 Zero-Point correction to Energy  =   54.351 kcal/mol  (  0.086614 au)
 Thermal correction to Energy     =   56.687 kcal/mol  (  0.090336 au)
 Thermal correction to Enthalpy   =   57.279 kcal/mol  (  0.091280 au)
 Total Entropy                    =   61.941 cal/mol-K
   - Translational                =   37.867 cal/mol-K (mol. weight =  54.0469)
   - Rotational                   =   21.638 cal/mol-K (symmetry #  =        2)
   - Vibrational                  =    2.436 cal/mol-K
   - Translational                  =    2.979 cal/mol-K
   - Rotational                     =    2.979 cal/mol-K
   - Vibrational                    =    7.192 cal/mol-K
 P.Frequency       -0.00       -0.00       -0.00       -0.00        0.00        0.00
 P.Frequency      431.66      724.25      746.22      837.90      839.61      944.92
 P.Frequency      966.88     1023.42     1097.24     1113.85     1127.06     1170.22
 P.Frequency     1182.62     1202.10     1289.30     1313.38     1524.51     1552.59
 P.Frequency     3062.88     3066.36     3165.00     3165.45     3236.36     3253.61

 Normal Eigenvalue ||           Projected Infra Red Intensities
  Mode   [cm**-1]  || [atomic units] [(debye/angs)**2] [(KM/mol)] [arbitrary]
 ------ ---------- || -------------- ----------------- ---------- -----------
    1       -0.000 ||    0.000021           0.000         0.020       0.021
    2       -0.000 ||    0.000437           0.010         0.426       0.427
    3       -0.000 ||    0.000135           0.003         0.131       0.132
    4       -0.000 ||    0.000119           0.003         0.116       0.116
    5        0.000 ||    0.000491           0.011         0.479       0.481
    6        0.000 ||    0.000287           0.007         0.280       0.281
    7      431.655 ||    0.001462           0.034         1.425       1.431
    8      724.247 ||    0.008362           0.193         8.151       8.183
    9      746.218 ||    0.077738           1.793        75.783      76.074
   10      837.896 ||    0.000014           0.000         0.014       0.014
   11      839.611 ||    0.000000           0.000         0.000       0.000
   12      944.924 ||    0.000000           0.000         0.000       0.000
   13      966.884 ||    0.000069           0.002         0.067       0.068
   14     1023.419 ||    0.006142           0.142         5.988       6.011
   15     1097.242 ||    0.001234           0.028         1.203       1.208
   16     1113.849 ||    0.000006           0.000         0.006       0.006
   17     1127.065 ||    0.000000           0.000         0.000       0.000
   18     1170.217 ||    0.000318           0.007         0.310       0.311
   19     1182.622 ||    0.032326           0.746        31.513      31.634
   20     1202.104 ||    0.000000           0.000         0.000       0.000
   21     1289.302 ||    0.002243           0.052         2.186       2.195
   22     1313.377 ||    0.000384           0.009         0.375       0.376
   23     1524.511 ||    0.000169           0.004         0.165       0.165
   24     1552.588 ||    0.000889           0.021         0.867       0.870
   25     3062.877 ||    0.060729           1.401        59.201      59.428
   26     3066.358 ||    0.046398           1.070        45.231      45.405
   27     3165.000 ||    0.037749           0.871        36.800      36.941
   28     3165.450 ||    0.016502           0.381        16.087      16.149
   29     3236.357 ||    0.006232           0.144         6.075       6.098
   30     3253.610 ||    0.006108           0.141         5.954       5.977
 ----------------------------------------------------------------------------

         Total DFT energy =     -156.022697143834
      Atom:    1  H
           isotropic =      31.4531
      Atom:    2  H
           isotropic =      32.0341
      Atom:    3  H
           isotropic =      31.4470
      Atom:    4  H
           isotropic =      31.4278
      Atom:    5  H
           isotropic =      32.0160
      Atom:    6  H
           isotropic =      31.4339
 Total times  cpu:      895.1s     wall:      906.6s
