============================== echo of input deck ==============================
start

title "Molecule conformer 0"

memory total 4000 mb

echo
geometry units angstroms
   C     -1.2678    -0.0414    -0.2110
   C     -0.0279    -0.6658     0.3880
   C      0.0367     0.7205    -0.2725
   C      1.2280    -0.2093    -0.3193
   H     -1.5724    -0.4889    -1.1799
   H     -1.9997     0.3457     0.5297
   H      0.0290    -0.5323     1.4911
   H      0.1229     1.4877     0.5287
   H      1.3850    -0.6877    -1.3083
   H      2.0664     0.0715     0.3533
end

basis spherical
* library 6-311G
end

driver
  maxiter 500
  xyz final
end

relativistic
  zora on
  zora:cutoff_NMR 1d-8
  zora:cutoff 1d-30
end

dft
  direct
  grid fine
  xc B3LYP
  mult 1
  maxiter 1500
  noprint "final vectors analysis" multipole
end

task dft optimize

task dft freq

property
  shielding 6 5 6 7 8 9 10
end

cosmo
   solvent cdcl3
end

task dft property
================================================================================

         Total DFT energy =     -155.978861008288
@ Step       Energy      Delta E   Gmax     Grms     Xrms     Xmax   Walltime
@ ---- ---------------- -------- -------- -------- -------- -------- --------
@    0    -155.97886101  0.0D+00  0.02143  0.00708  0.00000  0.00000     19.1
         Total DFT energy =     -155.998142055453
         Total DFT energy =     -156.003229723897
@    1    -156.00322972 -2.4D-02  0.02560  0.00569  0.10096  0.21859     55.9
         Total DFT energy =     -156.009161547519
         Total DFT energy =     -156.010354901872
@    2    -156.01035490 -7.1D-03  0.00806  0.00200  0.05097  0.10498     90.6
         Total DFT energy =     -156.012365737903
         Total DFT energy =     -156.013602019644
@    3    -156.01360202 -3.2D-03  0.00540  0.00148  0.07164  0.18826    122.8
         Total DFT energy =     -156.014993114363
         Total DFT energy =     -156.016413400601
@    4    -156.01641340 -2.8D-03  0.00498  0.00158  0.05554  0.11160    158.7
         Total DFT energy =     -156.017250596220
         Total DFT energy =     -156.017778341636
@    5    -156.01777834 -1.4D-03  0.00386  0.00100  0.03605  0.09550    191.2
         Total DFT energy =     -156.018428059541
         Total DFT energy =     -156.018628759228
@    6    -156.01862876 -8.5D-04  0.00088  0.00043  0.03801  0.10723    225.4
         Total DFT energy =     -156.018941295473
         Total DFT energy =     -156.019313355220
@    7    -156.01931336 -6.8D-04  0.00385  0.00119  0.03647  0.08797    259.0
         Total DFT energy =     -156.019788967387
         Total DFT energy =     -156.019946166840
@    8    -156.01994617 -6.3D-04  0.00107  0.00029  0.02788  0.06625    293.5
         Total DFT energy =     -156.020002924250
         Total DFT energy =   -156.020002924250
@    9    -156.02000292 -5.7D-05  0.00023  0.00007  0.00770  0.01830    316.4
         Total DFT energy =     -156.020004869741
         Total DFT energy =   -156.020004869741
@   10    -156.02000487 -1.9D-06  0.00004  0.00002  0.00149  0.00470    330.6
         Total DFT energy =     -156.020005341124
         Total DFT energy =   -156.020005341124
@   11    -156.02000534 -4.7D-07  0.00003  0.00001  0.00043  0.00100    341.3
@   11    -156.02000534 -4.7D-07  0.00003  0.00001  0.00043  0.00100    341.3

 Output coordinates in angstroms (scale by  1.889725989 to convert to a.u.)

  No.       Tag          Charge          X              Y              Z
 ---- ---------------- ---------- -------------- -------------- --------------
    1 C                    6.0000     0.00000000     1.14331888    -0.23116401
    2 C                    6.0000    -0.75478077     0.00000000     0.40746690
    3 C                    6.0000     0.75478077     0.00000000     0.40746690
    4 C                    6.0000     0.00000000    -1.14331888    -0.23116401
    5 H                    1.0000     0.00000000     1.23963811    -1.31360378
    6 H                    1.0000     0.00000000     2.08934844     0.29671873
    7 H                    1.0000    -1.45318729     0.00000000     1.22371129
    8 H                    1.0000     1.45318729     0.00000000     1.22371129
    9 H                    1.0000     0.00000000    -1.23963811    -1.31360378
   10 H                    1.0000     0.00000000    -2.08934844     0.29671873

         Total DFT energy =     -156.020005341665
         Total DFT energy =     -156.020142468432
         Total DFT energy =     -156.020140502136
         Total DFT energy =     -156.020149617798
         Total DFT energy =     -156.020148775694
         Total DFT energy =     -156.020144763791
         Total DFT energy =     -156.020145272425
         Total DFT energy =     -156.020156912675
         Total DFT energy =     -156.020156114281
         Total DFT energy =     -156.020133026304
         Total DFT energy =     -156.020136143632
         Total DFT energy =     -156.020136963674
         Total DFT energy =     -156.020135434670
         Total DFT energy =     -156.020158195771
         Total DFT energy =     -156.020159046736
         Total DFT energy =     -156.020165011628
         Total DFT energy =     -156.020165179587
         Total DFT energy =     -156.020155589879
         Total DFT energy =     -156.020156671607
         Total DFT energy =     -156.020165088651
         Total DFT energy =     -156.020165129518
         Total DFT energy =     -156.020164440947
         Total DFT energy =     -156.020164261459
         Total DFT energy =     -156.020150797141
         Total DFT energy =     -156.020150217611
         Total DFT energy =     -156.020165373118
         Total DFT energy =     -156.020165385490
         Total DFT energy =     -156.020153377641
         Total DFT energy =     -156.020153010061
         Total DFT energy =     -156.020160097113
         Total DFT energy =     -156.020161682450
 Zero-Point correction to Energy  =   54.351 kcal/mol  (  0.086614 au)
 Thermal correction to Energy     =   56.686 kcal/mol  (  0.090336 au)
 Thermal correction to Enthalpy   =   57.279 kcal/mol  (  0.091279 au)
 Total Entropy                    =   61.941 cal/mol-K
   - Translational                =   37.867 cal/mol-K (mol. weight =  54.0469)
   - Rotational                   =   21.638 cal/mol-K (symmetry #  =        2)
   - Vibrational                  =    2.436 cal/mol-K
   - Translational                  =    2.979 cal/mol-K
   - Rotational                     =    2.979 cal/mol-K
   - Vibrational                    =    7.192 cal/mol-K
 P.Frequency       -0.00       -0.00        0.00        0.00        0.00        0.00
 P.Frequency      431.52      724.24      746.28      837.89      839.63      944.94
 P.Frequency      966.87     1023.38     1097.34     1113.88     1127.00     1170.26
 P.Frequency     1182.47     1202.02     1289.28     1313.33     1524.45     1552.60
 P.Frequency     3062.91     3066.39     3165.02     3165.45     3236.39     3253.63

 Normal Eigenvalue ||           Projected Infra Red Intensities
  Mode   [cm**-1]  || [atomic units] [(debye/angs)**2] [(KM/mol)] [arbitrary]
 ------ ---------- || -------------- ----------------- ---------- -----------
    1       -0.000 ||    0.000291           0.007         0.284       0.285
    2       -0.000 ||    0.000168           0.004         0.163       0.164
    3        0.000 ||    0.000479           0.011         0.467       0.469
    4        0.000 ||    0.000070           0.002         0.068       0.068
    5        0.000 ||    0.000478           0.011         0.466       0.468
    6        0.000 ||    0.000009           0.000         0.009       0.009
    7      431.519 ||    0.001459           0.034         1.422       1.429
    8      724.244 ||    0.008364           0.193         8.154       8.191
    9      746.283 ||    0.077727           1.793        75.772      76.116
   10      837.888 ||    0.000013           0.000         0.013       0.013
   11      839.628 ||    0.000000           0.000         0.000       0.000
   12      944.937 ||    0.000000           0.000         0.000       0.000
   13      966.874 ||    0.000068           0.002         0.066       0.066
   14     1023.383 ||    0.006156           0.142         6.001       6.028
   15     1097.338 ||    0.001234           0.028         1.203       1.209
   16     1113.879 ||    0.000005           0.000         0.005       0.005
   17     1126.999 ||    0.000000           0.000         0.000       0.000
   18     1170.258 ||    0.000378           0.009         0.368       0.370
   19     1182.469 ||    0.032238           0.744        31.427      31.570
   20     1202.016 ||    0.000000           0.000         0.000       0.000
   21     1289.282 ||    0.002244           0.052         2.188       2.198
   22     1313.325 ||    0.000382           0.009         0.372       0.374
   23     1524.450 ||    0.000171           0.004         0.167       0.168
   24     1552.603 ||    0.000891           0.021         0.868       0.872
   25     3062.908 ||    0.060681           1.400        59.155      59.423
   26     3066.390 ||    0.046253           1.067        45.090      45.295
   27     3165.018 ||    0.037810           0.872        36.859      37.026
   28     3165.453 ||    0.016492           0.380        16.077      16.150
   29     3236.389 ||    0.006197           0.143         6.041       6.069
   30     3253.635 ||    0.006091           0.141         5.938       5.965
 ----------------------------------------------------------------------------

         Total DFT energy =     -156.022697192885
      Atom:    1  H
           isotropic =      32.0320
      Atom:    2  H
           isotropic =      31.4506
      Atom:    3  H
           isotropic =      31.4467
      Atom:    4  H
           isotropic =      31.4281
      Atom:    5  H
           isotropic =      32.0181
      Atom:    6  H
           isotropic =      31.4364
 Total times  cpu:      902.2s     wall:      905.0s
