============================== echo of input deck ==============================
start

title "Molecule conformer 0"

memory total 4000 mb

echo
geometry units angstroms
   C     -1.2219     0.2380     0.3224
   C     -0.2144    -0.2233    -0.7063
   C      0.2272     0.0977     0.7304
   C      1.1632     0.3366    -0.4327
   H     -1.8942    -0.5583     0.7070
   H     -1.5506     1.2896     0.1886
   H     -0.2100    -1.3283    -0.8364
   H      0.4335    -0.8606     1.2568
   H      1.2753     1.4063    -0.7063
   H      1.9918    -0.3978    -0.5234
end

basis spherical
* library 6-311G
end

driver
  maxiter 500
  xyz final
end

relativistic
  zora on
  zora:cutoff_NMR 1d-8
  zora:cutoff 1d-30
end

dft
  direct
  grid fine
  xc B3LYP
  mult 1
  maxiter 1500
  noprint "final vectors analysis" multipole
end

task dft optimize

task dft freq

property
  shielding 6 5 6 7 8 9 10
end

cosmo
   solvent cdcl3
end

task dft property
================================================================================

         Total DFT energy =     -155.978897277059
@ Step       Energy      Delta E   Gmax     Grms     Xrms     Xmax   Walltime
@ ---- ---------------- -------- -------- -------- -------- -------- --------
@    0    -155.97889728  0.0D+00  0.02140  0.00708  0.00000  0.00000     16.9
         Total DFT energy =     -155.998167317992
         Total DFT energy =     -156.003246157876
@    1    -156.00324616 -2.4D-02  0.02555  0.00569  0.10091  0.21833     51.7
         Total DFT energy =     -156.009170909869
         Total DFT energy =     -156.010364125902
@    2    -156.01036413 -7.1D-03  0.00805  0.00200  0.05099  0.10492     84.3
         Total DFT energy =     -156.012372429045
         Total DFT energy =     -156.013605006426
@    3    -156.01360501 -3.2D-03  0.00540  0.00148  0.07156  0.18807    113.3
         Total DFT energy =     -156.014994911580
         Total DFT energy =     -156.016414862884
@    4    -156.01641486 -2.8D-03  0.00494  0.00157  0.05554  0.11163    144.1
         Total DFT energy =     -156.017251558208
         Total DFT energy =     -156.017778173866
@    5    -156.01777817 -1.4D-03  0.00383  0.00099  0.03595  0.09513    173.8
         Total DFT energy =     -156.018428311351
         Total DFT energy =     -156.018630078839
@    6    -156.01863008 -8.5D-04  0.00088  0.00043  0.03806  0.10737    203.9
         Total DFT energy =     -156.018942504797
         Total DFT energy =     -156.019317974032
@    7    -156.01931797 -6.9D-04  0.00385  0.00119  0.03656  0.08834    232.3
         Total DFT energy =     -156.019791824226
         Total DFT energy =     -156.019946557389
@    8    -156.01994656 -6.3D-04  0.00107  0.00029  0.02772  0.06575    262.8
         Total DFT energy =     -156.020002927215
         Total DFT energy =   -156.020002927215
@    9    -156.02000293 -5.6D-05  0.00023  0.00007  0.00769  0.01832    281.3
         Total DFT energy =     -156.020004876624
         Total DFT energy =   -156.020004876624
@   10    -156.02000488 -1.9D-06  0.00004  0.00002  0.00149  0.00469    293.8
         Total DFT energy =     -156.020005348099
         Total DFT energy =   -156.020005348099
@   11    -156.02000535 -4.7D-07  0.00003  0.00001  0.00043  0.00100    305.1
@   11    -156.02000535 -4.7D-07  0.00003  0.00001  0.00043  0.00100    305.2

 Output coordinates in angstroms (scale by  1.889725989 to convert to a.u.)

  No.       Tag          Charge          X              Y              Z
 ---- ---------------- ---------- -------------- -------------- --------------
    1 C                    6.0000     0.00000000    -1.14331868     0.23119998
    2 C                    6.0000    -0.75478098     0.00000000    -0.40743041
    3 C                    6.0000     0.75478098     0.00000000    -0.40743041
    4 C                    6.0000     0.00000000     1.14331868     0.23119998
    5 H                    1.0000     0.00000000    -2.08934788    -0.29668410
    6 H                    1.0000     0.00000000    -1.23964070     1.31363974
    7 H                    1.0000    -1.45318664     0.00000000    -1.22367556
    8 H                    1.0000     1.45318664     0.00000000    -1.22367556
    9 H                    1.0000     0.00000000     1.23964070     1.31363974
   10 H                    1.0000     0.00000000     2.08934788    -0.29668410

         Total DFT energy =     -156.020005348606
         Total DFT energy =     -156.020142316090
         Total DFT energy =     -156.020140560491
         Total DFT energy =     -156.020150059720
         Total DFT energy =     -156.020148238269
         Total DFT energy =     -156.020145298517
         Total DFT energy =     -156.020144642456
         Total DFT energy =     -156.020157194336
         Total DFT energy =     -156.020155737557
         Total DFT energy =     -156.020135758774
         Total DFT energy =     -156.020133322246
         Total DFT energy =     -156.020135207974
         Total DFT energy =     -156.020137097241
         Total DFT energy =     -156.020158151996
         Total DFT energy =     -156.020158995455
         Total DFT energy =     -156.020165118992
         Total DFT energy =     -156.020164977589
         Total DFT energy =     -156.020156640910
         Total DFT energy =     -156.020155525272
         Total DFT energy =     -156.020165127957
         Total DFT energy =     -156.020164995657
         Total DFT energy =     -156.020164183333
         Total DFT energy =     -156.020164424668
         Total DFT energy =     -156.020150173293
         Total DFT energy =     -156.020150745237
         Total DFT energy =     -156.020165428668
         Total DFT energy =     -156.020165235300
         Total DFT energy =     -156.020152918016
         Total DFT energy =     -156.020153374262
         Total DFT energy =     -156.020161592223
         Total DFT energy =     -156.020160092136
 Zero-Point correction to Energy  =   54.351 kcal/mol  (  0.086614 au)
 Thermal correction to Energy     =   56.687 kcal/mol  (  0.090336 au)
 Thermal correction to Enthalpy   =   57.279 kcal/mol  (  0.091280 au)
 Total Entropy                    =   61.940 cal/mol-K
   - Translational                =   37.867 cal/mol-K (mol. weight =  54.0469)
   - Rotational                   =   21.638 cal/mol-K (symmetry #  =        2)
   - Vibrational                  =    2.436 cal/mol-K
   - Translational                  =    2.979 cal/mol-K
   - Rotational                     =    2.979 cal/mol-K
   - Vibrational                    =    7.192 cal/mol-K
 P.Frequency       -0.00       -0.00       -0.00       -0.00        0.00        0.00
 P.Frequency      431.70      724.18      746.22      837.90      839.62      944.89
 P.Frequency      966.92     1023.43     1097.29     1113.87     1127.05     1170.19
 P.Frequency     1182.61     1202.12     1289.27     1313.37     1524.48     1552.58
 P.Frequency     3062.87     3066.37     3165.02     3165.46     3236.34     3253.62

 Normal Eigenvalue ||           Projected Infra Red Intensities
  Mode   [cm**-1]  || [atomic units] [(debye/angs)**2] [(KM/mol)] [arbitrary]
 ------ ---------- || -------------- ----------------- ---------- -----------
    1       -0.000 ||    0.000288           0.007         0.280       0.282
    2       -0.000 ||    0.000437           0.010         0.426       0.428
    3       -0.000 ||    0.000021           0.000         0.020       0.021
    4       -0.000 ||    0.000119           0.003         0.116       0.116
    5        0.000 ||    0.000491           0.011         0.479       0.481
    6        0.000 ||    0.000135           0.003         0.132       0.132
    7      431.698 ||    0.001460           0.034         1.423       1.428
    8      724.178 ||    0.008366           0.193         8.156       8.188
    9      746.217 ||    0.077754           1.794        75.799      76.093
   10      837.896 ||    0.000014           0.000         0.014       0.014
   11      839.621 ||    0.000000           0.000         0.000       0.000
   12      944.892 ||    0.000000           0.000         0.000       0.000
   13      966.920 ||    0.000068           0.002         0.067       0.067
   14     1023.425 ||    0.006138           0.142         5.984       6.007
   15     1097.291 ||    0.001236           0.029         1.205       1.210
   16     1113.874 ||    0.000006           0.000         0.006       0.006
   17     1127.050 ||    0.000000           0.000         0.000       0.000
   18     1170.192 ||    0.000331           0.008         0.323       0.324
   19     1182.606 ||    0.032311           0.745        31.498      31.621
   20     1202.121 ||    0.000000           0.000         0.000       0.000
   21     1289.267 ||    0.002240           0.052         2.184       2.192
   22     1313.374 ||    0.000383           0.009         0.373       0.375
   23     1524.483 ||    0.000170           0.004         0.165       0.166
   24     1552.577 ||    0.000889           0.021         0.867       0.870
   25     3062.866 ||    0.060724           1.401        59.196      59.426
   26     3066.374 ||    0.046357           1.069        45.191      45.366
   27     3165.021 ||    0.037763           0.871        36.813      36.956
   28     3165.457 ||    0.016499           0.381        16.084      16.146
   29     3236.341 ||    0.006244           0.144         6.087       6.110
   30     3253.624 ||    0.006105           0.141         5.952       5.975
 ----------------------------------------------------------------------------

         Total DFT energy =     -156.022697139898
      Atom:    1  H
           isotropic =      31.4527
      Atom:    2  H
           isotropic =      32.0336
      Atom:    3  H
           isotropic =      31.4471
      Atom:    4  H
           isotropic =      31.4276
      Atom:    5  H
           isotropic =      32.0165
      Atom:    6  H
           isotropic =      31.4343
 Total times  cpu:      869.2s     wall:      873.5s
