============================== echo of input deck ==============================
start

title "Molecule conformer 0"

memory total 4000 mb

echo
geometry units angstroms
   C      1.2183    -0.0416     0.4094
   C     -0.0266     0.7625     0.1100
   C      0.0384    -0.7338    -0.2348
   C     -1.2725    -0.0925     0.1606
   H      1.3484    -0.2830     1.4848
   H      2.0743     0.1530    -0.2715
   H      0.0560     1.3445    -0.8347
   H      0.1506    -0.8357    -1.3370
   H     -1.9841     0.0703    -0.6768
   H     -1.6028    -0.3438     1.1899
end

basis spherical
* library 6-311G
end

driver
  maxiter 500
  xyz final
end

relativistic
  zora on
  zora:cutoff_NMR 1d-8
  zora:cutoff 1d-30
end

dft
  direct
  grid fine
  xc B3LYP
  mult 1
  maxiter 1500
  noprint "final vectors analysis" multipole
end

task dft optimize

task dft freq

property
  shielding 6 5 6 7 8 9 10
end

cosmo
   solvent cdcl3
end

task dft property
================================================================================

         Total DFT energy =     -155.978907443304
@ Step       Energy      Delta E   Gmax     Grms     Xrms     Xmax   Walltime
@ ---- ---------------- -------- -------- -------- -------- -------- --------
@    0    -155.97890744  0.0D+00  0.02143  0.00708  0.00000  0.00000     20.4
         Total DFT energy =     -155.998176360778
         Total DFT energy =     -156.003251823244
@    1    -156.00325182 -2.4D-02  0.02556  0.00568  0.10092  0.21835     60.2
         Total DFT energy =     -156.009174801743
         Total DFT energy =     -156.010367533885
@    2    -156.01036753 -7.1D-03  0.00806  0.00200  0.05098  0.10496     93.4
         Total DFT energy =     -156.012375105561
         Total DFT energy =     -156.013606946634
@    3    -156.01360695 -3.2D-03  0.00540  0.00148  0.07156  0.18806    125.0
         Total DFT energy =     -156.014996512004
         Total DFT energy =     -156.016416303737
@    4    -156.01641630 -2.8D-03  0.00494  0.00157  0.05555  0.11168    160.4
         Total DFT energy =     -156.017252567121
         Total DFT energy =     -156.017778446791
@    5    -156.01777845 -1.4D-03  0.00381  0.00099  0.03593  0.09500    191.3
         Total DFT energy =     -156.018428557713
         Total DFT energy =     -156.018630453111
@    6    -156.01863045 -8.5D-04  0.00088  0.00043  0.03808  0.10745    223.2
         Total DFT energy =     -156.018942769284
         Total DFT energy =     -156.019318698558
@    7    -156.01931870 -6.9D-04  0.00385  0.00119  0.03659  0.08849    258.7
         Total DFT energy =     -156.019792152943
         Total DFT energy =     -156.019946520068
@    8    -156.01994652 -6.3D-04  0.00107  0.00029  0.02769  0.06572    291.1
         Total DFT energy =     -156.020002919018
         Total DFT energy =   -156.020002919018
@    9    -156.02000292 -5.6D-05  0.00023  0.00007  0.00770  0.01833    313.3
         Total DFT energy =     -156.020004872415
         Total DFT energy =   -156.020004872415
@   10    -156.02000487 -2.0D-06  0.00004  0.00002  0.00149  0.00469    327.3
         Total DFT energy =     -156.020005345863
         Total DFT energy =   -156.020005345863
@   11    -156.02000535 -4.7D-07  0.00003  0.00001  0.00043  0.00100    338.7
@   11    -156.02000535 -4.7D-07  0.00003  0.00001  0.00043  0.00100    338.7

 Output coordinates in angstroms (scale by  1.889725989 to convert to a.u.)

  No.       Tag          Charge          X              Y              Z
 ---- ---------------- ---------- -------------- -------------- --------------
    1 C                    6.0000     0.00000000    -1.14331839     0.23120762
    2 C                    6.0000     0.75478101     0.00000000    -0.40742257
    3 C                    6.0000    -0.75478101     0.00000000    -0.40742257
    4 C                    6.0000     0.00000000     1.14331839     0.23120762
    5 H                    1.0000     0.00000000    -1.23964092     1.31364738
    6 H                    1.0000     0.00000000    -2.08934711    -0.29667754
    7 H                    1.0000     1.45318621     0.00000000    -1.22366810
    8 H                    1.0000    -1.45318621     0.00000000    -1.22366810
    9 H                    1.0000     0.00000000     2.08934711    -0.29667754
   10 H                    1.0000     0.00000000     1.23964092     1.31364738

         Total DFT energy =     -156.020005346396
         Total DFT energy =     -156.020140144867
         Total DFT energy =     -156.020142881307
         Total DFT energy =     -156.020149748783
         Total DFT energy =     -156.020148700971
         Total DFT energy =     -156.020145216841
         Total DFT energy =     -156.020144879627
         Total DFT energy =     -156.020157018126
         Total DFT energy =     -156.020156068329
         Total DFT energy =     -156.020135821725
         Total DFT energy =     -156.020133414071
         Total DFT energy =     -156.020135260689
         Total DFT energy =     -156.020137199576
         Total DFT energy =     -156.020159104307
         Total DFT energy =     -156.020158196532
         Total DFT energy =     -156.020165059703
         Total DFT energy =     -156.020165192406
         Total DFT energy =     -156.020156667474
         Total DFT energy =     -156.020155651482
         Total DFT energy =     -156.020165213293
         Total DFT energy =     -156.020165606528
         Total DFT energy =     -156.020153003951
         Total DFT energy =     -156.020153443939
         Total DFT energy =     -156.020161674584
         Total DFT energy =     -156.020160165360
         Total DFT energy =     -156.020165002504
         Total DFT energy =     -156.020165277074
         Total DFT energy =     -156.020164253180
         Total DFT energy =     -156.020164510583
         Total DFT energy =     -156.020150244562
         Total DFT energy =     -156.020150829265
 Zero-Point correction to Energy  =   54.351 kcal/mol  (  0.086614 au)
 Thermal correction to Energy     =   56.687 kcal/mol  (  0.090336 au)
 Thermal correction to Enthalpy   =   57.279 kcal/mol  (  0.091280 au)
 Total Entropy                    =   61.941 cal/mol-K
   - Translational                =   37.867 cal/mol-K (mol. weight =  54.0469)
   - Rotational                   =   21.638 cal/mol-K (symmetry #  =        2)
   - Vibrational                  =    2.436 cal/mol-K
   - Translational                  =    2.979 cal/mol-K
   - Rotational                     =    2.979 cal/mol-K
   - Vibrational                    =    7.192 cal/mol-K
 P.Frequency       -0.00        0.00        0.00        0.00        0.00        0.00
 P.Frequency      431.47      724.15      746.35      837.96      839.78      944.84
 P.Frequency      967.12     1023.45     1097.41     1113.80     1127.00     1170.18
 P.Frequency     1182.38     1202.07     1289.30     1313.41     1524.38     1552.53
 P.Frequency     3063.26     3066.04     3164.75     3165.67     3236.43     3253.64

 Normal Eigenvalue ||           Projected Infra Red Intensities
  Mode   [cm**-1]  || [atomic units] [(debye/angs)**2] [(KM/mol)] [arbitrary]
 ------ ---------- || -------------- ----------------- ---------- -----------
    1       -0.000 ||    0.000024           0.001         0.023       0.023
    2        0.000 ||    0.000148           0.003         0.144       0.145
    3        0.000 ||    0.000095           0.002         0.092       0.093
    4        0.000 ||    0.000274           0.006         0.268       0.269
    5        0.000 ||    0.000485           0.011         0.473       0.475
    6        0.000 ||    0.000465           0.011         0.453       0.456
    7      431.466 ||    0.001453           0.034         1.417       1.424
    8      724.151 ||    0.008364           0.193         8.154       8.192
    9      746.350 ||    0.077676           1.792        75.722      76.078
   10      837.961 ||    0.000014           0.000         0.014       0.014
   11      839.782 ||    0.000000           0.000         0.000       0.000
   12      944.837 ||    0.000000           0.000         0.000       0.000
   13      967.125 ||    0.000069           0.002         0.067       0.067
   14     1023.450 ||    0.006147           0.142         5.993       6.021
   15     1097.409 ||    0.001236           0.029         1.205       1.211
   16     1113.804 ||    0.000006           0.000         0.005       0.005
   17     1126.997 ||    0.000000           0.000         0.000       0.000
   18     1170.183 ||    0.000394           0.009         0.385       0.386
   19     1182.377 ||    0.032183           0.742        31.374      31.521
   20     1202.068 ||    0.000000           0.000         0.000       0.000
   21     1289.301 ||    0.002241           0.052         2.185       2.195
   22     1313.415 ||    0.000380           0.009         0.371       0.372
   23     1524.381 ||    0.000169           0.004         0.165       0.166
   24     1552.532 ||    0.000892           0.021         0.869       0.873
   25     3063.261 ||    0.060997           1.407        59.463      59.742
   26     3066.040 ||    0.046426           1.071        45.258      45.471
   27     3164.754 ||    0.037466           0.864        36.523      36.695
   28     3165.665 ||    0.016439           0.379        16.026      16.101
   29     3236.429 ||    0.006142           0.142         5.988       6.016
   30     3253.643 ||    0.006115           0.141         5.961       5.989
 ----------------------------------------------------------------------------

         Total DFT energy =     -156.022697213894
      Atom:    1  H
           isotropic =      32.0337
      Atom:    2  H
           isotropic =      31.4527
      Atom:    3  H
           isotropic =      31.4456
      Atom:    4  H
           isotropic =      31.4291
      Atom:    5  H
           isotropic =      31.4343
      Atom:    6  H
           isotropic =      32.0163
 Total times  cpu:      888.3s     wall:      896.9s
