============================== echo of input deck ==============================
start

title "Molecule conformer 0"

memory total 4000 mb

echo
geometry units angstroms
   C     -1.2603     0.2556    -0.0065
   C      0.0187     0.0375     0.7700
   C     -0.0146    -0.1650    -0.7532
   C      1.2416     0.3271    -0.0707
   H     -2.0227    -0.5429     0.1166
   H     -1.5258     1.3245    -0.1427
   H      0.0597    -0.9624     1.2563
   H      0.0113    -1.2574    -0.9628
   H      1.4384     1.4092    -0.2188
   H      2.0537    -0.4264     0.0118
end

basis spherical
* library 6-311G
end

driver
  maxiter 500
  xyz final
end

relativistic
  zora on
  zora:cutoff_NMR 1d-8
  zora:cutoff 1d-30
end

dft
  direct
  grid fine
  xc B3LYP
  mult 1
  maxiter 1500
  noprint "final vectors analysis" multipole
end

task dft optimize

task dft freq

property
  shielding 6 5 6 7 8 9 10
end

cosmo
   solvent cdcl3
end

task dft property
================================================================================

         Total DFT energy =     -155.978916791850
@ Step       Energy      Delta E   Gmax     Grms     Xrms     Xmax   Walltime
@ ---- ---------------- -------- -------- -------- -------- -------- --------
@    0    -155.97891679  0.0D+00  0.02140  0.00708  0.00000  0.00000     18.5
         Total DFT energy =     -155.998174870907
         Total DFT energy =     -156.003253477955
@    1    -156.00325348 -2.4D-02  0.02555  0.00568  0.10092  0.21822     55.5
         Total DFT energy =     -156.009174777579
         Total DFT energy =     -156.010367231952
@    2    -156.01036723 -7.1D-03  0.00805  0.00200  0.05099  0.10499     91.5
         Total DFT energy =     -156.012374477859
         Total DFT energy =     -156.013606045935
@    3    -156.01360605 -3.2D-03  0.00540  0.00148  0.07154  0.18804    122.8
         Total DFT energy =     -156.014995614858
         Total DFT energy =     -156.016414862085
@    4    -156.01641486 -2.8D-03  0.00493  0.00157  0.05551  0.11159    156.4
         Total DFT energy =     -156.017251566429
         Total DFT energy =     -156.017777962374
@    5    -156.01777796 -1.4D-03  0.00382  0.00099  0.03596  0.09509    189.1
         Total DFT energy =     -156.018428360706
         Total DFT energy =     -156.018630445013
@    6    -156.01863045 -8.5D-04  0.00088  0.00043  0.03807  0.10738    222.3
         Total DFT energy =     -156.018942863155
         Total DFT energy =     -156.019320139594
@    7    -156.01932014 -6.9D-04  0.00386  0.00119  0.03661  0.08858    253.1
         Total DFT energy =     -156.019793138636
         Total DFT energy =     -156.019946572401
@    8    -156.01994657 -6.3D-04  0.00107  0.00029  0.02763  0.06549    287.8
         Total DFT energy =     -156.020002918896
         Total DFT energy =   -156.020002918896
@    9    -156.02000292 -5.6D-05  0.00023  0.00007  0.00771  0.01837    308.7
         Total DFT energy =     -156.020004874700
         Total DFT energy =   -156.020004874700
@   10    -156.02000487 -2.0D-06  0.00004  0.00002  0.00149  0.00468    322.9
         Total DFT energy =     -156.020005345809
         Total DFT energy =   -156.020005345809
@   11    -156.02000535 -4.7D-07  0.00003  0.00001  0.00042  0.00099    333.7
@   11    -156.02000535 -4.7D-07  0.00003  0.00001  0.00042  0.00099    333.7

 Output coordinates in angstroms (scale by  1.889725989 to convert to a.u.)

  No.       Tag          Charge          X              Y              Z
 ---- ---------------- ---------- -------------- -------------- --------------
    1 C                    6.0000     0.00000000    -1.14331895     0.23120666
    2 C                    6.0000     0.75478107     0.00000000    -0.40742294
    3 C                    6.0000    -0.75478107     0.00000000    -0.40742294
    4 C                    6.0000     0.00000000     1.14331895     0.23120666
    5 H                    1.0000     0.00000000    -2.08934741    -0.29667916
    6 H                    1.0000     0.00000000    -1.23964334     1.31364639
    7 H                    1.0000     1.45318643     0.00000000    -1.22366844
    8 H                    1.0000    -1.45318643     0.00000000    -1.22366844
    9 H                    1.0000     0.00000000     1.23964334     1.31364639
   10 H                    1.0000     0.00000000     2.08934741    -0.29667916

         Total DFT energy =     -156.020005346312
         Total DFT energy =     -156.020140144985
         Total DFT energy =     -156.020142880964
         Total DFT energy =     -156.020149748683
         Total DFT energy =     -156.020148700871
         Total DFT energy =     -156.020145216820
         Total DFT energy =     -156.020144879432
         Total DFT energy =     -156.020157018008
         Total DFT energy =     -156.020156068230
         Total DFT energy =     -156.020135820324
         Total DFT energy =     -156.020133415320
         Total DFT energy =     -156.020135261513
         Total DFT energy =     -156.020137198565
         Total DFT energy =     -156.020159104677
         Total DFT energy =     -156.020158195966
         Total DFT energy =     -156.020165059601
         Total DFT energy =     -156.020165192304
         Total DFT energy =     -156.020156667563
         Total DFT energy =     -156.020155651174
         Total DFT energy =     -156.020165002404
         Total DFT energy =     -156.020165276973
         Total DFT energy =     -156.020164251822
         Total DFT energy =     -156.020164511759
         Total DFT energy =     -156.020150243690
         Total DFT energy =     -156.020150829955
         Total DFT energy =     -156.020165213192
         Total DFT energy =     -156.020165606427
         Total DFT energy =     -156.020153003047
         Total DFT energy =     -156.020153444677
         Total DFT energy =     -156.020161674102
         Total DFT energy =     -156.020160165654
 Zero-Point correction to Energy  =   54.351 kcal/mol  (  0.086614 au)
 Thermal correction to Energy     =   56.687 kcal/mol  (  0.090336 au)
 Thermal correction to Enthalpy   =   57.279 kcal/mol  (  0.091280 au)
 Total Entropy                    =   61.940 cal/mol-K
   - Translational                =   37.867 cal/mol-K (mol. weight =  54.0469)
   - Rotational                   =   21.638 cal/mol-K (symmetry #  =        2)
   - Vibrational                  =    2.436 cal/mol-K
   - Translational                  =    2.979 cal/mol-K
   - Rotational                     =    2.979 cal/mol-K
   - Vibrational                    =    7.192 cal/mol-K
 P.Frequency       -0.00       -0.00        0.00        0.00        0.00        0.00
 P.Frequency      431.63      724.21      746.35      837.93      839.78      944.83
 P.Frequency      966.99     1023.46     1097.32     1113.89     1127.00     1170.19
 P.Frequency     1182.37     1202.07     1289.30     1313.40     1524.40     1552.58
 P.Frequency     3062.89     3066.34     3164.99     3165.43     3236.43     3253.63

 Normal Eigenvalue ||           Projected Infra Red Intensities
  Mode   [cm**-1]  || [atomic units] [(debye/angs)**2] [(KM/mol)] [arbitrary]
 ------ ---------- || -------------- ----------------- ---------- -----------
    1       -0.000 ||    0.000288           0.007         0.281       0.282
    2       -0.000 ||    0.000492           0.011         0.480       0.482
    3        0.000 ||    0.000021           0.000         0.020       0.020
    4        0.000 ||    0.000437           0.010         0.426       0.428
    5        0.000 ||    0.000118           0.003         0.115       0.116
    6        0.000 ||    0.000134           0.003         0.131       0.132
    7      431.626 ||    0.001456           0.034         1.419       1.426
    8      724.214 ||    0.008361           0.193         8.150       8.189
    9      746.349 ||    0.077677           1.792        75.723      76.079
   10      837.925 ||    0.000014           0.000         0.014       0.014
   11      839.777 ||    0.000000           0.000         0.000       0.000
   12      944.831 ||    0.000000           0.000         0.000       0.000
   13      966.993 ||    0.000068           0.002         0.067       0.067
   14     1023.458 ||    0.006147           0.142         5.992       6.020
   15     1097.315 ||    0.001235           0.028         1.204       1.209
   16     1113.892 ||    0.000005           0.000         0.005       0.005
   17     1126.997 ||    0.000000           0.000         0.000       0.000
   18     1170.189 ||    0.000396           0.009         0.386       0.388
   19     1182.374 ||    0.032182           0.742        31.372      31.520
   20     1202.067 ||    0.000000           0.000         0.000       0.000
   21     1289.295 ||    0.002242           0.052         2.186       2.196
   22     1313.403 ||    0.000381           0.009         0.371       0.373
   23     1524.400 ||    0.000169           0.004         0.165       0.166
   24     1552.580 ||    0.000890           0.021         0.867       0.871
   25     3062.889 ||    0.060737           1.401        59.209      59.487
   26     3066.340 ||    0.046379           1.070        45.213      45.425
   27     3164.987 ||    0.037728           0.870        36.779      36.952
   28     3165.434 ||    0.016488           0.380        16.073      16.149
   29     3236.428 ||    0.006142           0.142         5.988       6.016
   30     3253.630 ||    0.006116           0.141         5.962       5.990
 ----------------------------------------------------------------------------

         Total DFT energy =     -156.022697214726
      Atom:    1  H
           isotropic =      31.4527
      Atom:    2  H
           isotropic =      32.0337
      Atom:    3  H
           isotropic =      31.4456
      Atom:    4  H
           isotropic =      31.4291
      Atom:    5  H
           isotropic =      32.0163
      Atom:    6  H
           isotropic =      31.4343
 Total times  cpu:      900.4s     wall:      897.2s
