============================== echo of input deck ==============================
start

title "Molecule conformer 0"

memory total 4000 mb

echo
geometry units angstroms
   C     -1.2698    -0.1638    -0.1199
   C     -0.0244     0.6300    -0.4439
   C      0.0343    -0.5475     0.5421
   C      1.2247    -0.2141    -0.3284
   H     -1.5835    -0.8563    -0.9284
   H     -1.9947     0.3553     0.5427
   H      0.0432     1.5772     0.1360
   H      0.1286    -0.1383     1.5724
   H      2.0697     0.2733     0.2030
   H      1.3719    -0.9158    -1.1756
end

basis spherical
* library 6-311G
end

driver
  maxiter 500
  xyz final
end

relativistic
  zora on
  zora:cutoff_NMR 1d-8
  zora:cutoff 1d-30
end

dft
  direct
  grid fine
  xc B3LYP
  mult 1
  maxiter 1500
  noprint "final vectors analysis" multipole
end

task dft optimize

task dft freq

property
  shielding 6 5 6 7 8 9 10
end

cosmo
   solvent cdcl3
end

task dft property
================================================================================

         Total DFT energy =     -155.978908162731
@ Step       Energy      Delta E   Gmax     Grms     Xrms     Xmax   Walltime
@ ---- ---------------- -------- -------- -------- -------- -------- --------
@    0    -155.97890816  0.0D+00  0.02138  0.00708  0.00000  0.00000     18.9
         Total DFT energy =     -155.998172218573
         Total DFT energy =     -156.003253079552
@    1    -156.00325308 -2.4D-02  0.02553  0.00568  0.10091  0.21822     55.5
         Total DFT energy =     -156.009174182472
         Total DFT energy =     -156.010366334892
@    2    -156.01036633 -7.1D-03  0.00804  0.00200  0.05099  0.10489     91.9
         Total DFT energy =     -156.012373533232
         Total DFT energy =     -156.013605063990
@    3    -156.01360506 -3.2D-03  0.00540  0.00148  0.07154  0.18802    127.0
         Total DFT energy =     -156.014995000817
         Total DFT energy =     -156.016414303454
@    4    -156.01641430 -2.8D-03  0.00493  0.00157  0.05550  0.11155    163.4
         Total DFT energy =     -156.017251074221
         Total DFT energy =     -156.017777372918
@    5    -156.01777737 -1.4D-03  0.00382  0.00099  0.03595  0.09504    196.6
         Total DFT energy =     -156.018428057414
         Total DFT energy =     -156.018630422753
@    6    -156.01863042 -8.5D-04  0.00088  0.00043  0.03808  0.10743    231.4
         Total DFT energy =     -156.018942789322
         Total DFT energy =     -156.019320938050
@    7    -156.01932094 -6.9D-04  0.00386  0.00119  0.03663  0.08860    265.6
         Total DFT energy =     -156.019793755401
         Total DFT energy =     -156.019946719899
@    8    -156.01994672 -6.3D-04  0.00107  0.00029  0.02760  0.06537    299.6
         Total DFT energy =     -156.020002921192
         Total DFT energy =   -156.020002921192
@    9    -156.02000292 -5.6D-05  0.00023  0.00007  0.00771  0.01836    321.0
         Total DFT energy =     -156.020004869848
         Total DFT energy =   -156.020004869848
@   10    -156.02000487 -1.9D-06  0.00004  0.00002  0.00149  0.00468    334.4
         Total DFT energy =     -156.020005340330
         Total DFT energy =   -156.020005340330
@   11    -156.02000534 -4.7D-07  0.00003  0.00001  0.00042  0.00099    345.6
@   11    -156.02000534 -4.7D-07  0.00003  0.00001  0.00042  0.00099    345.6

 Output coordinates in angstroms (scale by  1.889725989 to convert to a.u.)

  No.       Tag          Charge          X              Y              Z
 ---- ---------------- ---------- -------------- -------------- --------------
    1 C                    6.0000     0.00000000     1.14331875    -0.23121952
    2 C                    6.0000     0.75478109     0.00000000     0.40741091
    3 C                    6.0000    -0.75478109     0.00000000     0.40741091
    4 C                    6.0000     0.00000000    -1.14331875    -0.23121952
    5 H                    1.0000     0.00000000     1.23964209    -1.31365940
    6 H                    1.0000     0.00000000     2.08934783     0.29666505
    7 H                    1.0000     1.45318692     0.00000000     1.22365598
    8 H                    1.0000    -1.45318692     0.00000000     1.22365598
    9 H                    1.0000     0.00000000    -2.08934783     0.29666505
   10 H                    1.0000     0.00000000    -1.23964209    -1.31365940

         Total DFT energy =     -156.020005340796
         Total DFT energy =     -156.020140211716
         Total DFT energy =     -156.020142731142
         Total DFT energy =     -156.020149537159
         Total DFT energy =     -156.020148829502
         Total DFT energy =     -156.020144762459
         Total DFT energy =     -156.020145249703
         Total DFT energy =     -156.020156750143
         Total DFT energy =     -156.020156251127
         Total DFT energy =     -156.020133009565
         Total DFT energy =     -156.020136136649
         Total DFT energy =     -156.020136927698
         Total DFT energy =     -156.020135447101
         Total DFT energy =     -156.020159058636
         Total DFT energy =     -156.020158158540
         Total DFT energy =     -156.020165052267
         Total DFT energy =     -156.020165114142
         Total DFT energy =     -156.020155594211
         Total DFT energy =     -156.020156641568
         Total DFT energy =     -156.020165238243
         Total DFT energy =     -156.020165496041
         Total DFT energy =     -156.020153378580
         Total DFT energy =     -156.020152984471
         Total DFT energy =     -156.020160089906
         Total DFT energy =     -156.020161665179
         Total DFT energy =     -156.020165008918
         Total DFT energy =     -156.020165185004
         Total DFT energy =     -156.020164424207
         Total DFT energy =     -156.020164254064
         Total DFT energy =     -156.020150783470
         Total DFT energy =     -156.020150206775
 Zero-Point correction to Energy  =   54.351 kcal/mol  (  0.086613 au)
 Thermal correction to Energy     =   56.686 kcal/mol  (  0.090335 au)
 Thermal correction to Enthalpy   =   57.278 kcal/mol  (  0.091279 au)
 Total Entropy                    =   61.941 cal/mol-K
   - Translational                =   37.867 cal/mol-K (mol. weight =  54.0469)
   - Rotational                   =   21.638 cal/mol-K (symmetry #  =        2)
   - Vibrational                  =    2.437 cal/mol-K
   - Translational                  =    2.979 cal/mol-K
   - Rotational                     =    2.979 cal/mol-K
   - Vibrational                    =    7.192 cal/mol-K
 P.Frequency       -0.00       -0.00       -0.00        0.00        0.00        0.00
 P.Frequency      431.35      724.20      746.39      837.97      839.71      944.99
 P.Frequency      967.01     1023.45     1097.43     1113.83     1126.93     1170.17
 P.Frequency     1182.21     1202.05     1289.25     1313.37     1524.38     1552.54
 P.Frequency     3063.26     3066.08     3164.77     3165.65     3236.42     3253.66

 Normal Eigenvalue ||           Projected Infra Red Intensities
  Mode   [cm**-1]  || [atomic units] [(debye/angs)**2] [(KM/mol)] [arbitrary]
 ------ ---------- || -------------- ----------------- ---------- -----------
    1       -0.000 ||    0.000024           0.001         0.023       0.023
    2       -0.000 ||    0.000487           0.011         0.475       0.477
    3       -0.000 ||    0.000276           0.006         0.269       0.270
    4        0.000 ||    0.000465           0.011         0.454       0.456
    5        0.000 ||    0.000095           0.002         0.092       0.093
    6        0.000 ||    0.000148           0.003         0.145       0.145
    7      431.351 ||    0.001454           0.034         1.417       1.424
    8      724.205 ||    0.008370           0.193         8.160       8.200
    9      746.390 ||    0.077722           1.793        75.767      76.145
   10      837.971 ||    0.000014           0.000         0.014       0.014
   11      839.711 ||    0.000000           0.000         0.000       0.000
   12      944.988 ||    0.000000           0.000         0.000       0.000
   13      967.008 ||    0.000068           0.002         0.066       0.067
   14     1023.455 ||    0.006169           0.142         6.014       6.044
   15     1097.432 ||    0.001238           0.029         1.207       1.213
   16     1113.827 ||    0.000005           0.000         0.005       0.005
   17     1126.934 ||    0.000000           0.000         0.000       0.000
   18     1170.166 ||    0.000442           0.010         0.431       0.433
   19     1182.211 ||    0.032087           0.740        31.280      31.435
   20     1202.047 ||    0.000000           0.000         0.000       0.000
   21     1289.248 ||    0.002241           0.052         2.185       2.196
   22     1313.374 ||    0.000381           0.009         0.372       0.374
   23     1524.379 ||    0.000171           0.004         0.167       0.168
   24     1552.544 ||    0.000893           0.021         0.870       0.875
   25     3063.256 ||    0.060938           1.406        59.406      59.702
   26     3066.076 ||    0.046308           1.068        45.144      45.369
   27     3164.768 ||    0.037547           0.866        36.603      36.785
   28     3165.651 ||    0.016429           0.379        16.016      16.096
   29     3236.423 ||    0.006152           0.142         5.997       6.027
   30     3253.656 ||    0.006090           0.140         5.937       5.966
 ----------------------------------------------------------------------------

         Total DFT energy =     -156.022697177868
      Atom:    1  H
           isotropic =      32.0317
      Atom:    2  H
           isotropic =      31.4505
      Atom:    3  H
           isotropic =      31.4461
      Atom:    4  H
           isotropic =      31.4287
      Atom:    5  H
           isotropic =      31.4365
      Atom:    6  H
           isotropic =      32.0184
 Total times  cpu:      956.0s     wall:      910.6s
