============================== echo of input deck ==============================
start

title "Molecule conformer 0"

memory total 4000 mb

echo
geometry units angstroms
   C     -1.2477    -0.1467     0.2746
   C      0.0051     0.6982     0.3275
   C     -0.0069    -0.6341    -0.4388
   C      1.2558    -0.1465     0.2351
   H     -2.0462     0.2438    -0.3917
   H     -1.4642    -0.6880     1.2190
   H     -0.0066     1.5290    -0.4125
   H     -0.0241    -0.4120    -1.5289
   H      2.0327     0.2441    -0.4562
   H      1.5020    -0.6879     1.1721
end

basis spherical
* library 6-311G
end

driver
  maxiter 500
  xyz final
end

relativistic
  zora on
  zora:cutoff_NMR 1d-8
  zora:cutoff 1d-30
end

dft
  direct
  grid fine
  xc B3LYP
  mult 1
  maxiter 1500
  noprint "final vectors analysis" multipole
end

task dft optimize

task dft freq

property
  shielding 6 5 6 7 8 9 10
end

cosmo
   solvent cdcl3
end

task dft property
================================================================================

         Total DFT energy =     -155.978896472830
@ Step       Energy      Delta E   Gmax     Grms     Xrms     Xmax   Walltime
@ ---- ---------------- -------- -------- -------- -------- -------- --------
@    0    -155.97889647  0.0D+00  0.02140  0.00708  0.00000  0.00000     19.8
         Total DFT energy =     -155.998163201520
         Total DFT energy =     -156.003243017617
@    1    -156.00324302 -2.4D-02  0.02555  0.00569  0.10094  0.21829     54.9
         Total DFT energy =     -156.009168557370
         Total DFT energy =     -156.010362057624
@    2    -156.01036206 -7.1D-03  0.00805  0.00200  0.05099  0.10497     89.1
         Total DFT energy =     -156.012370642087
         Total DFT energy =     -156.013603734363
@    3    -156.01360373 -3.2D-03  0.00540  0.00148  0.07156  0.18810    120.9
         Total DFT energy =     -156.014993862976
         Total DFT energy =     -156.016414044603
@    4    -156.01641404 -2.8D-03  0.00494  0.00157  0.05554  0.11161    156.2
         Total DFT energy =     -156.017251059984
         Total DFT energy =     -156.017778073849
@    5    -156.01777807 -1.4D-03  0.00383  0.00099  0.03599  0.09527    186.5
         Total DFT energy =     -156.018428179488
         Total DFT energy =     -156.018629835060
@    6    -156.01862984 -8.5D-04  0.00088  0.00043  0.03804  0.10728    219.8
         Total DFT energy =     -156.018942430559
         Total DFT energy =     -156.019317558245
@    7    -156.01931756 -6.9D-04  0.00386  0.00119  0.03654  0.08829    254.1
         Total DFT energy =     -156.019791490164
         Total DFT energy =     -156.019946400820
@    8    -156.01994640 -6.3D-04  0.00108  0.00029  0.02774  0.06579    288.7
         Total DFT energy =     -156.020002908166
         Total DFT energy =   -156.020002908166
@    9    -156.02000291 -5.7D-05  0.00024  0.00007  0.00771  0.01837    310.0
         Total DFT energy =     -156.020004869695
         Total DFT energy =   -156.020004869695
@   10    -156.02000487 -2.0D-06  0.00004  0.00002  0.00149  0.00469    323.4
         Total DFT energy =     -156.020005341081
         Total DFT energy =   -156.020005341081
@   11    -156.02000534 -4.7D-07  0.00003  0.00001  0.00042  0.00099    335.3
@   11    -156.02000534 -4.7D-07  0.00003  0.00001  0.00042  0.00099    335.3

 Output coordinates in angstroms (scale by  1.889725989 to convert to a.u.)

  No.       Tag          Charge          X              Y              Z
 ---- ---------------- ---------- -------------- -------------- --------------
    1 C                    6.0000     0.00000000    -1.14331923    -0.23120194
    2 C                    6.0000     0.75478083     0.00000000     0.40742761
    3 C                    6.0000    -0.75478083     0.00000000     0.40742761
    4 C                    6.0000     0.00000000     1.14331923    -0.23120194
    5 H                    1.0000     0.00000000    -2.08934756     0.29668398
    6 H                    1.0000     0.00000000    -1.23964319    -1.31364167
    7 H                    1.0000     1.45318587     0.00000000     1.22367340
    8 H                    1.0000    -1.45318587     0.00000000     1.22367340
    9 H                    1.0000     0.00000000     2.08934756     0.29668398
   10 H                    1.0000     0.00000000     1.23964319    -1.31364167

         Total DFT energy =     -156.020005341592
         Total DFT energy =     -156.020140174519
         Total DFT energy =     -156.020142827948
         Total DFT energy =     -156.020149856029
         Total DFT energy =     -156.020148569089
         Total DFT energy =     -156.020144807941
         Total DFT energy =     -156.020145263861
         Total DFT energy =     -156.020156961736
         Total DFT energy =     -156.020156100888
         Total DFT energy =     -156.020135752601
         Total DFT energy =     -156.020133458308
         Total DFT energy =     -156.020137271939
         Total DFT energy =     -156.020135163772
         Total DFT energy =     -156.020159094337
         Total DFT energy =     -156.020158182039
         Total DFT energy =     -156.020165054627
         Total DFT energy =     -156.020165173018
         Total DFT energy =     -156.020155631228
         Total DFT energy =     -156.020156663278
         Total DFT energy =     -156.020165222267
         Total DFT energy =     -156.020165573166
         Total DFT energy =     -156.020152995250
         Total DFT energy =     -156.020153427982
         Total DFT energy =     -156.020160151852
         Total DFT energy =     -156.020161663672
         Total DFT energy =     -156.020164917967
         Total DFT energy =     -156.020165337157
         Total DFT energy =     -156.020164223995
         Total DFT energy =     -156.020164515347
         Total DFT energy =     -156.020150826188
         Total DFT energy =     -156.020150222793
 Zero-Point correction to Energy  =   54.351 kcal/mol  (  0.086614 au)
 Thermal correction to Energy     =   56.687 kcal/mol  (  0.090336 au)
 Thermal correction to Enthalpy   =   57.279 kcal/mol  (  0.091280 au)
 Total Entropy                    =   61.941 cal/mol-K
   - Translational                =   37.867 cal/mol-K (mol. weight =  54.0469)
   - Rotational                   =   21.638 cal/mol-K (symmetry #  =        2)
   - Vibrational                  =    2.436 cal/mol-K
   - Translational                  =    2.979 cal/mol-K
   - Rotational                     =    2.979 cal/mol-K
   - Vibrational                    =    7.192 cal/mol-K
 P.Frequency       -0.00       -0.00       -0.00        0.00        0.00        0.00
 P.Frequency      431.43      724.15      746.34      837.97      839.76      944.86
 P.Frequency      967.12     1023.48     1097.41     1113.80     1127.02     1170.17
 P.Frequency     1182.41     1202.08     1289.28     1313.41     1524.41     1552.52
 P.Frequency     3063.24     3066.03     3164.75     3165.66     3236.42     3253.62

 Normal Eigenvalue ||           Projected Infra Red Intensities
  Mode   [cm**-1]  || [atomic units] [(debye/angs)**2] [(KM/mol)] [arbitrary]
 ------ ---------- || -------------- ----------------- ---------- -----------
    1       -0.000 ||    0.000465           0.011         0.453       0.455
    2       -0.000 ||    0.000023           0.001         0.022       0.022
    3       -0.000 ||    0.000137           0.003         0.133       0.134
    4        0.000 ||    0.000485           0.011         0.473       0.475
    5        0.000 ||    0.000281           0.006         0.274       0.275
    6        0.000 ||    0.000099           0.002         0.096       0.097
    7      431.434 ||    0.001454           0.034         1.418       1.424
    8      724.152 ||    0.008366           0.193         8.156       8.192
    9      746.341 ||    0.077689           1.792        75.735      76.075
   10      837.973 ||    0.000014           0.000         0.014       0.014
   11      839.755 ||    0.000000           0.000         0.000       0.000
   12      944.859 ||    0.000000           0.000         0.000       0.000
   13      967.122 ||    0.000069           0.002         0.067       0.068
   14     1023.481 ||    0.006143           0.142         5.989       6.016
   15     1097.410 ||    0.001235           0.028         1.204       1.209
   16     1113.796 ||    0.000006           0.000         0.006       0.006
   17     1127.015 ||    0.000000           0.000         0.000       0.000
   18     1170.172 ||    0.000395           0.009         0.385       0.387
   19     1182.406 ||    0.032181           0.742        31.372      31.512
   20     1202.076 ||    0.000000           0.000         0.000       0.000
   21     1289.279 ||    0.002241           0.052         2.185       2.195
   22     1313.412 ||    0.000381           0.009         0.371       0.373
   23     1524.407 ||    0.000169           0.004         0.165       0.165
   24     1552.516 ||    0.000891           0.021         0.868       0.872
   25     3063.244 ||    0.061010           1.408        59.476      59.742
   26     3066.033 ||    0.046471           1.072        45.302      45.505
   27     3164.753 ||    0.037454           0.864        36.512      36.676
   28     3165.658 ||    0.016444           0.379        16.030      16.102
   29     3236.424 ||    0.006150           0.142         5.995       6.022
   30     3253.619 ||    0.006113           0.141         5.959       5.986
 ----------------------------------------------------------------------------

         Total DFT energy =     -156.022697211140
      Atom:    1  H
           isotropic =      31.4533
      Atom:    2  H
           isotropic =      32.0344
      Atom:    3  H
           isotropic =      31.4458
      Atom:    4  H
           isotropic =      31.4290
      Atom:    5  H
           isotropic =      31.4337
      Atom:    6  H
           isotropic =      32.0157
 Total times  cpu:      929.4s     wall:      891.5s
