============================== echo of input deck ==============================
start

title "Molecule conformer 0"

memory total 4000 mb

echo
geometry units angstroms
   C      1.1851    -0.3058    -0.3386
   C     -0.0940     0.3913    -0.6946
   C      0.1724    -0.1024     0.7651
   C     -1.2244     0.1990     0.2719
   H      2.0718     0.3599    -0.2729
   H      1.2477    -1.3324    -0.7616
   H      0.1111     1.4800    -0.7853
   H      0.0430    -1.1486     1.1195
   H     -1.6563     1.1410     0.6717
   H     -1.8564    -0.6820     0.0249
end

basis spherical
* library 6-311G
end

driver
  maxiter 500
  xyz final
end

relativistic
  zora on
  zora:cutoff_NMR 1d-8
  zora:cutoff 1d-30
end

dft
  direct
  grid fine
  xc B3LYP
  mult 1
  maxiter 1500
  noprint "final vectors analysis" multipole
end

task dft optimize

task dft freq

property
  shielding 6 5 6 7 8 9 10
end

cosmo
   solvent cdcl3
end

task dft property
================================================================================

         Total DFT energy =     -155.855216822873
@ Step       Energy      Delta E   Gmax     Grms     Xrms     Xmax   Walltime
@ ---- ---------------- -------- -------- -------- -------- -------- --------
@    0    -155.85521682  0.0D+00  0.03330  0.00864  0.00000  0.00000     27.2
         Total DFT energy =     -155.881872801742
         Total DFT energy =     -155.898725768225
@    1    -155.89872577 -4.4D-02  0.04015  0.00971  0.12741  0.40204     72.7
         Total DFT energy =     -155.911509681339
         Total DFT energy =     -155.913079551964
@    2    -155.91307955 -1.4D-02  0.00712  0.00225  0.05219  0.09148    113.5
         Total DFT energy =     -155.916505910788
         Total DFT energy =     -155.918935434573
@    3    -155.91893543 -5.9D-03  0.00771  0.00176  0.06838  0.15621    154.5
         Total DFT energy =     -155.919717598898
         Total DFT energy =     -155.919883151578
@    4    -155.91988315 -9.5D-04  0.00323  0.00101  0.02514  0.04987    195.8
         Total DFT energy =     -155.920229517397
         Total DFT energy =     -155.920495647611
@    5    -155.92049565 -6.1D-04  0.00169  0.00057  0.02820  0.06716    233.9
         Total DFT energy =     -155.920684805046
         Total DFT energy =     -155.920907595421
@    6    -155.92090760 -4.1D-04  0.00387  0.00106  0.02250  0.03787    272.0
         Total DFT energy =     -155.921572287687
         Total DFT energy =     -155.922224939884
@    7    -155.92222494 -1.3D-03  0.00555  0.00123  0.05129  0.09240    312.4
         Total DFT energy =     -155.923168340143
         Total DFT energy =     -155.923544668706
@    8    -155.92354467 -1.3D-03  0.00497  0.00116  0.06252  0.10881    355.7
         Total DFT energy =     -155.924195179831
         Total DFT energy =   -155.924195179831
@    9    -155.92419518 -6.5D-04  0.00407  0.00079  0.02500  0.04409    380.5
         Total DFT energy =     -155.924597855523
         Total DFT energy =     -155.924765496153
@   10    -155.92476550 -5.7D-04  0.00188  0.00071  0.06010  0.10953    422.3
         Total DFT energy =     -155.924076055497
         Total DFT energy =     -155.925069570870
@   11    -155.92506957 -3.0D-04  0.00204  0.00067  0.01655  0.04475    465.4
         Total DFT energy =     -155.925347856968
         Total DFT energy =     -155.925380400362
@   12    -155.92538040 -3.1D-04  0.00210  0.00069  0.03288  0.08066    502.7
         Total DFT energy =     -155.925756693642
         Total DFT energy =     -155.925766303607
@   13    -155.92576630 -3.9D-04  0.00195  0.00058  0.02620  0.05134    539.2
         Total DFT energy =     -155.926000683802
         Total DFT energy =     -155.926071982784
@   14    -155.92607198 -3.1D-04  0.00155  0.00039  0.02926  0.07283    575.8
         Total DFT energy =     -155.926204299693
         Total DFT energy =     -155.926294693636
@   15    -155.92629469 -2.2D-04  0.00216  0.00050  0.02364  0.05235    612.4
         Total DFT energy =     -155.926406738264
         Total DFT energy =     -155.926443272960
@   16    -155.92644327 -1.5D-04  0.00075  0.00024  0.02379  0.04407    651.3
         Total DFT energy =     -155.926482315023
         Total DFT energy =     -155.926485841763
@   17    -155.92648584 -4.3D-05  0.00037  0.00012  0.00942  0.02555    689.3
         Total DFT energy =     -155.926500384437
         Total DFT energy =     -155.926511725127
@   18    -155.92651173 -2.6D-05  0.00068  0.00021  0.01517  0.03417    728.3
         Total DFT energy =     -155.926532399966
         Total DFT energy =     -155.926542904539
@   19    -155.92654290 -3.1D-05  0.00032  0.00008  0.00467  0.01413    764.3
         Total DFT energy =     -155.926551398537
         Total DFT energy =     -155.926552457933
@   20    -155.92655246 -9.6D-06  0.00015  0.00005  0.00837  0.01715    797.9
         Total DFT energy =     -155.926555657102
         Total DFT energy =   -155.926555657102
@   21    -155.92655566 -3.2D-06  0.00009  0.00003  0.00254  0.00815    818.6
         Total DFT energy =     -155.926556868487
         Total DFT energy =   -155.926556868487
@   22    -155.92655687 -1.2D-06  0.00006  0.00002  0.00193  0.00390    840.4
         Total DFT energy =     -155.926557132863
         Total DFT energy =   -155.926557132863
@   23    -155.92655713 -2.6D-07  0.00002  0.00001  0.00104  0.00229    856.6
         Total DFT energy =     -155.926557267936
         Total DFT energy =   -155.926557267936
@   24    -155.92655727 -1.4D-07  0.00002  0.00000  0.00032  0.00067    868.3
@   24    -155.92655727 -1.4D-07  0.00002  0.00000  0.00032  0.00067    868.3

 Output coordinates in angstroms (scale by  1.889725989 to convert to a.u.)

  No.       Tag          Charge          X              Y              Z
 ---- ---------------- ---------- -------------- -------------- --------------
    1 C                    6.0000     0.01340957    -0.02799738     1.10543215
    2 C                    6.0000    -1.03690995    -0.05921988     0.00000000
    3 C                    6.0000     1.06374862     0.00330684     0.00000000
    4 C                    6.0000     0.01340957    -0.02799738    -1.10543215
    5 H                    1.0000    -0.14900284     0.84015089     1.74638506
    6 H                    1.0000     0.17573759    -0.89626621     1.74625359
    7 H                    1.0000    -1.75596833     0.76659770     0.00000000
    8 H                    1.0000     1.78273321    -0.82258619     0.00000000
    9 H                    1.0000    -0.14900284     0.84015089    -1.74638506
   10 H                    1.0000     0.17573759    -0.89626621    -1.74625359

         Total DFT energy =     -155.926557270241
         Total DFT energy =     -155.926615793463
         Total DFT energy =     -155.926616198653
         Total DFT energy =     -155.926622195919
         Total DFT energy =     -155.926622949388
         Total DFT energy =     -155.926621430517
         Total DFT energy =     -155.926621912789
         Total DFT energy =     -155.926616259826
         Total DFT energy =     -155.926615735042
         Total DFT energy =     -155.926622826993
         Total DFT energy =     -155.926622318210
         Total DFT energy =     -155.926621761905
         Total DFT energy =     -155.926621638298
         Total DFT energy =     -155.926624620528
         Total DFT energy =     -155.926625115065
         Total DFT energy =     -155.926612944135
         Total DFT energy =     -155.926612839492
         Total DFT energy =     -155.926610738509
         Total DFT energy =     -155.926610973302
         Total DFT energy =     -155.926630019648
         Total DFT energy =     -155.926630057046
         Total DFT energy =     -155.926628863540
         Total DFT energy =     -155.926628494431
         Total DFT energy =     -155.926635091690
         Total DFT energy =     -155.926635295421
         Total DFT energy =     -155.926630083417
         Total DFT energy =     -155.926629996366
         Total DFT energy =     -155.926628545971
         Total DFT energy =     -155.926628810025
         Total DFT energy =     -155.926635091254
         Total DFT energy =     -155.926635295058
         Total DFT energy =     -155.926635718101
         Total DFT energy =     -155.926635461549
         Total DFT energy =     -155.926626374142
         Total DFT energy =     -155.926627046664
         Total DFT energy =     -155.926630927621
         Total DFT energy =     -155.926630870255
         Total DFT energy =     -155.926635540009
         Total DFT energy =     -155.926635640547
         Total DFT energy =     -155.926627064426
         Total DFT energy =     -155.926626352412
         Total DFT energy =     -155.926631025322
         Total DFT energy =     -155.926630800646
 Zero-Point correction to Energy  =   51.441 kcal/mol  (  0.081976 au)
 Thermal correction to Energy     =   54.195 kcal/mol  (  0.086366 au)
 Thermal correction to Enthalpy   =   54.787 kcal/mol  (  0.087309 au)
 Total Entropy                    =   65.852 cal/mol-K
   - Translational                =   37.867 cal/mol-K (mol. weight =  54.0469)
   - Rotational                   =   23.265 cal/mol-K (symmetry #  =        1)
   - Vibrational                  =    4.720 cal/mol-K
   - Translational                  =    2.979 cal/mol-K
   - Rotational                     =    2.979 cal/mol-K
   - Vibrational                    =    9.470 cal/mol-K
 P.Frequency       -0.00       -0.00       -0.00        0.00        0.00        0.00
 P.Frequency      298.75      375.32      394.88      710.93      835.65      906.83
 P.Frequency      982.68      985.73     1028.56     1046.43     1060.41     1167.88
 P.Frequency     1176.36     1192.13     1338.85     1340.00     1408.05     1422.11
 P.Frequency     3020.74     3022.32     3045.47     3052.37     3092.69     3095.35

 Normal Eigenvalue ||           Projected Infra Red Intensities
  Mode   [cm**-1]  || [atomic units] [(debye/angs)**2] [(KM/mol)] [arbitrary]
 ------ ---------- || -------------- ----------------- ---------- -----------
    1       -0.000 ||    0.000003           0.000         0.003       0.001
    2       -0.000 ||    0.000000           0.000         0.000       0.000
    3       -0.000 ||    0.000000           0.000         0.000       0.000
    4        0.000 ||    0.000003           0.000         0.003       0.001
    5        0.000 ||    0.000002           0.000         0.002       0.001
    6        0.000 ||    0.000000           0.000         0.000       0.000
    7      298.750 ||    0.033464           0.772        32.623      12.140
    8      375.324 ||    0.000033           0.001         0.033       0.012
    9      394.882 ||    0.000356           0.008         0.347       0.129
   10      710.929 ||    0.344147           7.940       335.491     124.846
   11      835.652 ||    0.002462           0.057         2.400       0.893
   12      906.833 ||    0.005074           0.117         4.946       1.841
   13      982.676 ||    0.000022           0.000         0.021       0.008
   14      985.727 ||    0.027205           0.628        26.521       9.869
   15     1028.555 ||    0.000074           0.002         0.072       0.027
   16     1046.431 ||    0.003283           0.076         3.200       1.191
   17     1060.406 ||    0.083736           1.932        81.630      30.377
   18     1167.881 ||    0.000000           0.000         0.000       0.000
   19     1176.362 ||    0.091838           2.119        89.528      33.316
   20     1192.126 ||    0.000724           0.017         0.705       0.263
   21     1338.850 ||    0.000021           0.000         0.020       0.008
   22     1340.001 ||    0.003905           0.090         3.807       1.417
   23     1408.054 ||    0.087476           2.018        85.276      31.734
   24     1422.108 ||    0.003532           0.081         3.443       1.281
   25     3020.735 ||    0.054617           1.260        53.244      19.814
   26     3022.325 ||    0.066474           1.534        64.802      24.115
   27     3045.465 ||    0.000058           0.001         0.057       0.021
   28     3052.367 ||    0.001217           0.028         1.186       0.441
   29     3092.688 ||    0.000022           0.001         0.021       0.008
   30     3095.347 ||    0.017221           0.397        16.788       6.247
 ----------------------------------------------------------------------------

         Total DFT energy =     -155.932680934308
      Atom:    1  H
           isotropic =      26.8659
      Atom:    2  H
           isotropic =      26.8660
      Atom:    3  H
           isotropic =      27.7625
      Atom:    4  H
           isotropic =      27.7640
      Atom:    5  H
           isotropic =      26.8515
      Atom:    6  H
           isotropic =      26.8511
 Total times  cpu:     1682.1s     wall:     1750.6s
