============================== echo of input deck ==============================
start

title "Molecule conformer 0"

memory total 4000 mb

echo
geometry units angstroms
   Cl    -0.6421     1.5606    -0.4156
   C     -0.0009    -0.0041     0.1337
   Cl    -1.0143    -1.3174    -0.5062
   Cl     1.6654    -0.2011    -0.4544
   H     -0.0081    -0.0380     1.2425
end

basis spherical
* library 6-311G
end

driver
  maxiter 500
  xyz final
end

relativistic
  zora on
  zora:cutoff_NMR 1d-8
  zora:cutoff 1d-30
end

dft
  direct
  grid fine
  xc B3LYP
  mult 1
  maxiter 1500
  noprint "final vectors analysis" multipole
end

task dft optimize

task dft freq

property
  shielding 1 5
end

cosmo
   solvent cdcl3
end

task dft property
================================================================================

         Total DFT energy =    -1425.794632776858
@ Step       Energy      Delta E   Gmax     Grms     Xrms     Xmax   Walltime
@ ---- ---------------- -------- -------- -------- -------- -------- --------
@    0   -1425.79463278  0.0D+00  0.03462  0.02068  0.00000  0.00000     31.2
         Total DFT energy =    -1425.801899449250
         Total DFT energy =  -1425.801899449250
@    1   -1425.80189945 -7.3D-03  0.00569  0.00415  0.09103  0.15417     55.2
         Total DFT energy =    -1425.802656098201
         Total DFT energy =  -1425.802656098201
@    2   -1425.80265610 -7.6D-04  0.00187  0.00092  0.02520  0.05631     76.3
         Total DFT energy =    -1425.802672904136
         Total DFT energy =  -1425.802672904136
@    3   -1425.80267290 -1.7D-05  0.00017  0.00011  0.00386  0.01027     98.8
         Total DFT energy =    -1425.802672827136
         Total DFT energy =  -1425.802672827136
@    4   -1425.80267283  7.7D-08  0.00002  0.00001  0.00033  0.00069    111.9
@    4   -1425.80267283  7.7D-08  0.00002  0.00001  0.00033  0.00069    111.9

 Output coordinates in angstroms (scale by  1.889725989 to convert to a.u.)

  No.       Tag          Charge          X              Y              Z
 ---- ---------------- ---------- -------------- -------------- --------------
    1 Cl                  17.0000     0.44711483     1.70167567    -0.07168745
    2 C                    6.0000     0.00000000     0.00000000     0.48995880
    3 Cl                  17.0000    -1.69725177    -0.46362503    -0.07168745
    4 Cl                  17.0000     1.25013694    -1.23805064    -0.07168745
    5 H                    1.0000     0.00000000     0.00000000     1.56658132

         Total DFT energy =    -1425.802672768718
         Total DFT energy =    -1426.005036417175
         Total DFT energy =    -1426.005032933227
         Total DFT energy =    -1426.005032973127
         Total DFT energy =    -1426.005036379864
         Total DFT energy =    -1426.005018542677
         Total DFT energy =    -1426.005018797086
         Total DFT energy =    -1426.005038054849
         Total DFT energy =    -1426.005041180580
         Total DFT energy =    -1426.005041225077
         Total DFT energy =    -1426.005038126144
         Total DFT energy =    -1426.005043043657
         Total DFT energy =    -1426.005041646905
         Total DFT energy =    -1426.005041643647
         Total DFT energy =    -1426.005040931190
         Total DFT energy =    -1426.005040946009
         Total DFT energy =    -1426.005041628551
         Total DFT energy =    -1426.005026424351
         Total DFT energy =    -1426.005025574322
 Zero-Point correction to Energy  =   12.083 kcal/mol  (  0.019256 au)
 Thermal correction to Energy     =   14.983 kcal/mol  (  0.023877 au)
 Thermal correction to Enthalpy   =   15.575 kcal/mol  (  0.024820 au)
 Total Entropy                    =   71.428 cal/mol-K
   - Translational                =   40.191 cal/mol-K (mol. weight = 117.9144)
   - Rotational                   =   25.334 cal/mol-K (symmetry #  =        3)
   - Vibrational                  =    5.902 cal/mol-K
   - Translational                  =    2.979 cal/mol-K
   - Rotational                     =    2.979 cal/mol-K
   - Vibrational                    =    8.304 cal/mol-K
 P.Frequency       -0.00       -0.00       -0.00       -0.00        0.00        0.00
 P.Frequency      248.71      248.71      338.70      608.58      665.78      665.78
 P.Frequency     1228.65     1228.65     3222.86

 Normal Eigenvalue ||           Projected Infra Red Intensities
  Mode   [cm**-1]  || [atomic units] [(debye/angs)**2] [(KM/mol)] [arbitrary]
 ------ ---------- || -------------- ----------------- ---------- -----------
    1       -0.000 ||    0.000372           0.009         0.363       0.118
    2       -0.000 ||    0.000003           0.000         0.003       0.001
    3       -0.000 ||    0.000002           0.000         0.002       0.001
    4       -0.000 ||    0.000398           0.009         0.388       0.126
    5        0.000 ||    0.000002           0.000         0.002       0.001
    6        0.000 ||    0.000390           0.009         0.380       0.124
    7      248.710 ||    0.000002           0.000         0.002       0.001
    8      248.710 ||    0.000002           0.000         0.002       0.001
    9      338.700 ||    0.000244           0.006         0.238       0.077
   10      608.585 ||    0.006668           0.154         6.500       2.116
   11      665.782 ||    0.202739           4.677       197.640      64.355
   12      665.782 ||    0.202739           4.677       197.640      64.355
   13     1228.651 ||    0.029473           0.680        28.732       9.356
   14     1228.651 ||    0.029473           0.680        28.732       9.356
   15     3222.862 ||    0.000039           0.001         0.038       0.012
 ----------------------------------------------------------------------------

         Total DFT energy =    -1426.009946274885
      Atom:    1  H
           isotropic =      25.0779
 Total times  cpu:      692.4s     wall:      670.8s
