============================== echo of input deck ==============================
start

title "Molecule conformer 0"

memory total 4000 mb

echo
geometry units angstroms
   Cl    -0.9160    -1.4221    -0.3990
   C     -0.0001     0.0058     0.1336
   Cl    -0.7569     1.4742    -0.5238
   Cl     1.6743    -0.1115    -0.4528
   H     -0.0013     0.0536     1.2420
end

basis spherical
* library 6-311G
end

driver
  maxiter 500
  xyz final
end

relativistic
  zora on
  zora:cutoff_NMR 1d-8
  zora:cutoff 1d-30
end

dft
  direct
  grid fine
  xc B3LYP
  mult 1
  maxiter 1500
  noprint "final vectors analysis" multipole
end

task dft optimize

task dft freq

property
  shielding 1 5
end

cosmo
   solvent cdcl3
end

task dft property
================================================================================

         Total DFT energy =    -1425.794633233951
@ Step       Energy      Delta E   Gmax     Grms     Xrms     Xmax   Walltime
@ ---- ---------------- -------- -------- -------- -------- -------- --------
@    0   -1425.79463323  0.0D+00  0.03462  0.02068  0.00000  0.00000     33.9
         Total DFT energy =    -1425.801899605635
         Total DFT energy =  -1425.801899605635
@    1   -1425.80189961 -7.3D-03  0.00569  0.00415  0.09101  0.15421     57.2
         Total DFT energy =    -1425.802655150242
         Total DFT energy =  -1425.802655150242
@    2   -1425.80265515 -7.6D-04  0.00187  0.00092  0.02519  0.05631     77.8
         Total DFT energy =    -1425.802671815034
         Total DFT energy =  -1425.802671815034
@    3   -1425.80267182 -1.7D-05  0.00017  0.00011  0.00386  0.01027     98.9
         Total DFT energy =    -1425.802671721993
         Total DFT energy =  -1425.802671721993
@    4   -1425.80267172  9.3D-08  0.00002  0.00001  0.00033  0.00069    110.8
@    4   -1425.80267172  9.3D-08  0.00002  0.00001  0.00033  0.00069    110.8

 Output coordinates in angstroms (scale by  1.889725989 to convert to a.u.)

  No.       Tag          Charge          X              Y              Z
 ---- ---------------- ---------- -------------- -------------- --------------
    1 Cl                  17.0000    -0.45537925     1.69949851    -0.07168761
    2 C                    6.0000    -0.00000000     0.00000000     0.48997443
    3 Cl                  17.0000     1.69949851    -0.45537925    -0.07168761
    4 Cl                  17.0000    -1.24411926    -1.24411926    -0.07168761
    5 H                    1.0000     0.00000000    -0.00000000     1.56659636

         Total DFT energy =    -1425.802671663154
         Total DFT energy =    -1426.005033542053
         Total DFT energy =    -1426.005037015536
         Total DFT energy =    -1426.005033551420
         Total DFT energy =    -1426.005037006316
         Total DFT energy =    -1426.005019060890
         Total DFT energy =    -1426.005019480504
         Total DFT energy =    -1426.005041853518
         Total DFT energy =    -1426.005038642367
         Total DFT energy =    -1426.005041853507
         Total DFT energy =    -1426.005038642413
         Total DFT energy =    -1426.005043676963
         Total DFT energy =    -1426.005042215396
         Total DFT energy =    -1426.005041546068
         Total DFT energy =    -1426.005042230509
         Total DFT energy =    -1426.005041545304
         Total DFT energy =    -1426.005042231294
         Total DFT energy =    -1426.005027029210
         Total DFT energy =    -1426.005026171057
 Zero-Point correction to Energy  =   12.083 kcal/mol  (  0.019256 au)
 Thermal correction to Energy     =   14.983 kcal/mol  (  0.023876 au)
 Thermal correction to Enthalpy   =   15.575 kcal/mol  (  0.024820 au)
 Total Entropy                    =   71.428 cal/mol-K
   - Translational                =   40.191 cal/mol-K (mol. weight = 117.9144)
   - Rotational                   =   25.334 cal/mol-K (symmetry #  =        3)
   - Vibrational                  =    5.903 cal/mol-K
   - Translational                  =    2.979 cal/mol-K
   - Rotational                     =    2.979 cal/mol-K
   - Vibrational                    =    8.304 cal/mol-K
 P.Frequency       -0.00       -0.00        0.00        0.00        0.00        0.00
 P.Frequency      248.71      248.71      338.69      608.57      665.74      665.74
 P.Frequency     1228.63     1228.63     3222.87

 Normal Eigenvalue ||           Projected Infra Red Intensities
  Mode   [cm**-1]  || [atomic units] [(debye/angs)**2] [(KM/mol)] [arbitrary]
 ------ ---------- || -------------- ----------------- ---------- -----------
    1       -0.000 ||    0.000375           0.009         0.365       0.119
    2       -0.000 ||    0.000002           0.000         0.002       0.001
    3        0.000 ||    0.000399           0.009         0.389       0.127
    4        0.000 ||    0.000001           0.000         0.001       0.000
    5        0.000 ||    0.000389           0.009         0.379       0.123
    6        0.000 ||    0.000003           0.000         0.003       0.001
    7      248.705 ||    0.000002           0.000         0.002       0.001
    8      248.705 ||    0.000002           0.000         0.002       0.001
    9      338.694 ||    0.000244           0.006         0.237       0.077
   10      608.565 ||    0.006668           0.154         6.500       2.117
   11      665.744 ||    0.202738           4.677       197.639      64.354
   12      665.744 ||    0.202738           4.677       197.639      64.354
   13     1228.633 ||    0.029476           0.680        28.735       9.357
   14     1228.633 ||    0.029476           0.680        28.735       9.357
   15     3222.875 ||    0.000039           0.001         0.038       0.012
 ----------------------------------------------------------------------------

         Total DFT energy =    -1426.009946469747
      Atom:    1  H
           isotropic =      25.0777
 Total times  cpu:      663.1s     wall:      662.2s
