============================== echo of input deck ==============================
start

title "Molecule conformer 0"

memory total 4000 mb

echo
geometry units angstroms
   C     -1.0541    -0.4275    -0.1018
   C      0.1483     0.4700    -0.1197
   C      1.3487     0.0416     0.2852
   Cl    -0.0401     2.1300    -0.6670
   H     -0.7969    -1.4590     0.2216
   H     -1.8108    -0.0137     0.5967
   H     -1.4922    -0.4754    -1.1204
   H      2.2038     0.7099     0.2701
   H      1.4934    -0.9759     0.6353
end

basis spherical
* library 6-311G
end

driver
  maxiter 500
  xyz final
end

relativistic
  zora on
  zora:cutoff_NMR 1d-8
  zora:cutoff 1d-30
end

dft
  direct
  grid fine
  xc B3LYP
  mult 1
  maxiter 1500
  noprint "final vectors analysis" multipole
end

task dft optimize

task dft freq

property
  shielding 5 5 6 7 8 9
end

cosmo
   solvent cdcl3
end

task dft property
================================================================================

         Total DFT energy =     -579.738643186655
@ Step       Energy      Delta E   Gmax     Grms     Xrms     Xmax   Walltime
@ ---- ---------------- -------- -------- -------- -------- -------- --------
@    0    -579.73864319  0.0D+00  0.02823  0.00711  0.00000  0.00000     35.0
         Total DFT energy =     -579.743336065279
         Total DFT energy =     -579.743666074979
@    1    -579.74366607 -5.0D-03  0.01264  0.00314  0.05722  0.13050     84.7
         Total DFT energy =     -579.744319080245
         Total DFT energy =     -579.744421958741
@    2    -579.74442196 -7.6D-04  0.00491  0.00102  0.01551  0.03945    130.6
         Total DFT energy =     -579.744467568812
         Total DFT energy =   -579.744467568812
@    3    -579.74446757 -4.6D-05  0.00041  0.00013  0.00628  0.01946    155.3
         Total DFT energy =     -579.744470378072
         Total DFT energy =   -579.744470378072
@    4    -579.74447038 -2.8D-06  0.00009  0.00004  0.00165  0.00362    173.2
         Total DFT energy =     -579.744471754683
         Total DFT energy =   -579.744471754683
@    5    -579.74447175 -1.4D-06  0.00013  0.00004  0.00120  0.00245    189.9
         Total DFT energy =     -579.744474441079
         Total DFT energy =   -579.744474441079
@    6    -579.74447444 -2.7D-06  0.00019  0.00007  0.00269  0.00641    214.0
         Total DFT energy =     -579.744478144409
         Total DFT energy =   -579.744478144409
@    7    -579.74447814 -3.7D-06  0.00029  0.00009  0.00464  0.01159    235.7
         Total DFT energy =     -579.744482300075
         Total DFT energy =   -579.744482300075
@    8    -579.74448230 -4.2D-06  0.00027  0.00009  0.00709  0.01779    256.1
         Total DFT energy =     -579.744484887103
         Total DFT energy =   -579.744484887103
@    9    -579.74448489 -2.6D-06  0.00015  0.00005  0.00622  0.01541    277.1
         Total DFT energy =     -579.744485220008
         Total DFT energy =   -579.744485220008
@   10    -579.74448522 -3.3D-07  0.00003  0.00001  0.00208  0.00474    294.9
         Total DFT energy =     -579.744485370100
         Total DFT energy =   -579.744485370100
@   11    -579.74448537 -1.5D-07  0.00002  0.00001  0.00044  0.00093    311.4
@   11    -579.74448537 -1.5D-07  0.00002  0.00001  0.00044  0.00093    311.4

 Output coordinates in angstroms (scale by  1.889725989 to convert to a.u.)

  No.       Tag          Charge          X              Y              Z
 ---- ---------------- ---------- -------------- -------------- --------------
    1 C                    6.0000    -1.14911752    -1.26282411     0.00331157
    2 C                    6.0000     0.13385893    -0.50101336     0.00545324
    3 C                    6.0000     1.37712819    -0.95817351    -0.00690599
    4 Cl                  17.0000    -0.12843779     1.33848510     0.02661514
    5 H                    1.0000    -0.94446622    -2.33414720    -0.01012205
    6 H                    1.0000    -1.74451929    -1.03492285     0.88908074
    7 H                    1.0000    -1.75356483    -1.01450957    -0.87075714
    8 H                    1.0000     2.23826216    -0.30843030    -0.00412265
    9 H                    1.0000     1.55498921    -2.02612953    -0.01977107

         Total DFT energy =     -579.744485367947
         Total DFT energy =     -579.744460356535
         Total DFT energy =     -579.744459457187
         Total DFT energy =     -579.744458377810
         Total DFT energy =     -579.744457583286
         Total DFT energy =     -579.744459233378
         Total DFT energy =     -579.744458064462
         Total DFT energy =     -579.744444813734
         Total DFT energy =     -579.744445285187
         Total DFT energy =     -579.744467267567
         Total DFT energy =     -579.744467896905
         Total DFT energy =     -579.744477324587
         Total DFT energy =     -579.744479597098
         Total DFT energy =     -579.744443672575
         Total DFT energy =     -579.744443030558
         Total DFT energy =     -579.744452231193
         Total DFT energy =     -579.744452932538
         Total DFT energy =     -579.744481138482
         Total DFT energy =     -579.744479260912
         Total DFT energy =     -579.744483319775
         Total DFT energy =     -579.744483997838
         Total DFT energy =     -579.744477837971
         Total DFT energy =     -579.744476943684
         Total DFT energy =     -579.744485647958
         Total DFT energy =     -579.744484998174
         Total DFT energy =     -579.744482026572
         Total DFT energy =     -579.744482073348
         Total DFT energy =     -579.744468882434
         Total DFT energy =     -579.744469222734
         Total DFT energy =     -579.744483031945
         Total DFT energy =     -579.744483036729
         Total DFT energy =     -579.744478414319
         Total DFT energy =     -579.744478707388
         Total DFT energy =     -579.744482246031
         Total DFT energy =     -579.744482108234
         Total DFT energy =     -579.744473542698
         Total DFT energy =     -579.744473880768
         Total DFT energy =     -579.744478288641
         Total DFT energy =     -579.744478575381
         Total DFT energy =     -579.744482058762
         Total DFT energy =     -579.744482038002
         Total DFT energy =     -579.744473605965
         Total DFT energy =     -579.744474318081
         Total DFT energy =     -579.744472773393
         Total DFT energy =     -579.744472641295
         Total DFT energy =     -579.744477233930
         Total DFT energy =     -579.744476902066
         Total DFT energy =     -579.744484549757
         Total DFT energy =     -579.744484382503
         Total DFT energy =     -579.744482219529
         Total DFT energy =     -579.744482159046
         Total DFT energy =     -579.744467815292
         Total DFT energy =     -579.744468257720
         Total DFT energy =     -579.744484233345
         Total DFT energy =     -579.744484299668
 Zero-Point correction to Energy  =   44.521 kcal/mol  (  0.070948 au)
 Thermal correction to Energy     =   47.543 kcal/mol  (  0.075765 au)
 Thermal correction to Enthalpy   =   48.136 kcal/mol  (  0.076709 au)
 Total Entropy                    =   70.541 cal/mol-K
   - Translational                =   38.883 cal/mol-K (mol. weight =  76.0080)
   - Rotational                   =   25.280 cal/mol-K (symmetry #  =        1)
   - Vibrational                  =    6.378 cal/mol-K
   - Translational                  =    2.979 cal/mol-K
   - Rotational                     =    2.979 cal/mol-K
   - Vibrational                    =   10.255 cal/mol-K
 P.Frequency       -0.00       -0.00        0.00        0.00        0.00        0.00
 P.Frequency      204.30      340.56      396.87      448.16      554.61      707.37
 P.Frequency      937.52      951.79     1039.18     1109.52     1199.15     1451.27
 P.Frequency     1468.85     1511.79     1530.72     1714.59     3021.48     3084.57
 P.Frequency     3099.22     3144.42     3241.66

 Normal Eigenvalue ||           Projected Infra Red Intensities
  Mode   [cm**-1]  || [atomic units] [(debye/angs)**2] [(KM/mol)] [arbitrary]
 ------ ---------- || -------------- ----------------- ---------- -----------
    1       -0.000 ||    0.000743           0.017         0.725       0.508
    2       -0.000 ||    0.000318           0.007         0.310       0.217
    3        0.000 ||    0.001212           0.028         1.181       0.827
    4        0.000 ||    0.000811           0.019         0.790       0.554
    5        0.000 ||    0.000055           0.001         0.054       0.038
    6        0.000 ||    0.000931           0.021         0.907       0.635
    7      204.299 ||    0.000576           0.013         0.561       0.393
    8      340.560 ||    0.001372           0.032         1.338       0.937
    9      396.870 ||    0.000272           0.006         0.265       0.186
   10      448.160 ||    0.013694           0.316        13.350       9.350
   11      554.612 ||    0.052941           1.221        51.609      36.146
   12      707.366 ||    0.000030           0.001         0.030       0.021
   13      937.521 ||    0.004432           0.102         4.321       3.026
   14      951.785 ||    0.061696           1.423        60.144      42.124
   15     1039.182 ||    0.001893           0.044         1.845       1.293
   16     1109.524 ||    0.000747           0.017         0.729       0.510
   17     1199.148 ||    0.094447           2.179        92.072      64.486
   18     1451.269 ||    0.008477           0.196         8.263       5.788
   19     1468.853 ||    0.003028           0.070         2.952       2.067
   20     1511.789 ||    0.015591           0.360        15.199      10.645
   21     1530.724 ||    0.017519           0.404        17.079      11.962
   22     1714.591 ||    0.054576           1.259        53.204      37.263
   23     3021.478 ||    0.017998           0.415        17.545      12.289
   24     3084.571 ||    0.015549           0.359        15.158      10.616
   25     3099.221 ||    0.017380           0.401        16.942      11.866
   26     3144.424 ||    0.002788           0.064         2.718       1.903
   27     3241.663 ||    0.006373           0.147         6.213       4.351
 ----------------------------------------------------------------------------

         Total DFT energy =     -579.749755455488
      Atom:    1  H
           isotropic =      30.5154
      Atom:    2  H
           isotropic =      30.5174
      Atom:    3  H
           isotropic =      30.5170
      Atom:    4  H
           isotropic =      27.4572
      Atom:    5  H
           isotropic =      27.0632
 Total times  cpu:     1274.8s     wall:     1263.4s
