============================== echo of input deck ==============================
start

title "Molecule conformer 0"

memory total 4000 mb

echo
geometry units angstroms
   C     -1.0979    -0.1753    -0.2455
   C      0.2578     0.4414    -0.0735
   C      1.2687    -0.2672     0.4377
   Cl     0.5217     2.1144    -0.5492
   H     -1.0312    -1.0505    -0.9258
   H     -1.4908    -0.5045     0.7396
   H     -1.8046     0.5612    -0.6820
   H      1.1274    -1.3014     0.7378
   H      2.2490     0.1820     0.5610
end

basis spherical
* library 6-311G
end

driver
  maxiter 500
  xyz final
end

relativistic
  zora on
  zora:cutoff_NMR 1d-8
  zora:cutoff 1d-30
end

dft
  direct
  grid fine
  xc B3LYP
  mult 1
  maxiter 1500
  noprint "final vectors analysis" multipole
end

task dft optimize

task dft freq

property
  shielding 5 5 6 7 8 9
end

cosmo
   solvent cdcl3
end

task dft property
================================================================================

         Total DFT energy =     -579.735300566909
@ Step       Energy      Delta E   Gmax     Grms     Xrms     Xmax   Walltime
@ ---- ---------------- -------- -------- -------- -------- -------- --------
@    0    -579.73530057  0.0D+00  0.02808  0.00728  0.00000  0.00000     31.6
         Total DFT energy =     -579.739757473473
         Total DFT energy =     -579.740069892794
@    1    -579.74006989 -4.8D-03  0.01200  0.00308  0.06462  0.15839     78.3
         Total DFT energy =     -579.740684706804
         Total DFT energy =     -579.740784789176
@    2    -579.74078479 -7.1D-04  0.00476  0.00097  0.01518  0.03938    120.4
         Total DFT energy =     -579.740826618066
         Total DFT energy =   -579.740826618066
@    3    -579.74082662 -4.2D-05  0.00039  0.00013  0.00477  0.01493    141.6
         Total DFT energy =     -579.740829250058
         Total DFT energy =   -579.740829250058
@    4    -579.74082925 -2.6D-06  0.00016  0.00004  0.00161  0.00476    157.0
         Total DFT energy =     -579.740829576737
         Total DFT energy =   -579.740829576737
@    5    -579.74082958 -3.3D-07  0.00003  0.00001  0.00038  0.00097    170.0
@    5    -579.74082958 -3.3D-07  0.00003  0.00001  0.00038  0.00097    170.0

 Output coordinates in angstroms (scale by  1.889725989 to convert to a.u.)

  No.       Tag          Charge          X              Y              Z
 ---- ---------------- ---------- -------------- -------------- --------------
    1 C                    6.0000    -1.14432637    -1.28370920     0.00000000
    2 C                    6.0000     0.13354639    -0.49272479     0.00000000
    3 C                    6.0000     1.37809415    -0.94724025     0.00000000
    4 Cl                  17.0000    -0.11842014     1.34801804     0.00000000
    5 H                    1.0000    -1.20034192    -1.92223413    -0.88373299
    6 H                    1.0000    -1.20034192    -1.92223413     0.88373299
    7 H                    1.0000    -2.01662286    -0.63666005     0.00000000
    8 H                    1.0000     1.55708663    -2.01579723     0.00000000
    9 H                    1.0000     2.23912101    -0.29756287     0.00000000

         Total DFT energy =     -579.740829494870
         Total DFT energy =     -579.740896597832
         Total DFT energy =     -579.740895641318
         Total DFT energy =     -579.740895593053
         Total DFT energy =     -579.740894761049
         Total DFT energy =     -579.740896053007
         Total DFT energy =     -579.740894793609
         Total DFT energy =     -579.740882437582
         Total DFT energy =     -579.740882568789
         Total DFT energy =     -579.740904200633
         Total DFT energy =     -579.740904156825
         Total DFT energy =     -579.740913612302
         Total DFT energy =     -579.740917243880
         Total DFT energy =     -579.740880329176
         Total DFT energy =     -579.740879907514
         Total DFT energy =     -579.740888641466
         Total DFT energy =     -579.740889669374
         Total DFT energy =     -579.740916841400
         Total DFT energy =     -579.740916597679
         Total DFT energy =     -579.740919933742
         Total DFT energy =     -579.740920163199
         Total DFT energy =     -579.740914321823
         Total DFT energy =     -579.740913904895
         Total DFT energy =     -579.740923106134
         Total DFT energy =     -579.740920137535
         Total DFT energy =     -579.740919349470
         Total DFT energy =     -579.740919537923
         Total DFT energy =     -579.740914741211
         Total DFT energy =     -579.740914929978
         Total DFT energy =     -579.740910360049
         Total DFT energy =     -579.740910217649
         Total DFT energy =     -579.740909788724
         Total DFT energy =     -579.740910248329
         Total DFT energy =     -579.740914008966
         Total DFT energy =     -579.740913916250
         Total DFT energy =     -579.740919663520
         Total DFT energy =     -579.740919744998
         Total DFT energy =     -579.740918939624
         Total DFT energy =     -579.740919034603
         Total DFT energy =     -579.740904724290
         Total DFT energy =     -579.740904978985
         Total DFT energy =     -579.740921263363
         Total DFT energy =     -579.740920784762
         Total DFT energy =     -579.740909499474
         Total DFT energy =     -579.740909428737
         Total DFT energy =     -579.740914176477
         Total DFT energy =     -579.740913413229
         Total DFT energy =     -579.740920803969
         Total DFT energy =     -579.740921136655
 Zero-Point correction to Energy  =   44.239 kcal/mol  (  0.070499 au)
 Thermal correction to Energy     =   46.910 kcal/mol  (  0.074755 au)
 Thermal correction to Enthalpy   =   47.502 kcal/mol  (  0.075699 au)
 Total Entropy                    =   68.425 cal/mol-K
   - Translational                =   38.883 cal/mol-K (mol. weight =  76.0080)
   - Rotational                   =   25.296 cal/mol-K (symmetry #  =        1)
   - Vibrational                  =    4.247 cal/mol-K
   - Translational                  =    2.979 cal/mol-K
   - Rotational                     =    2.979 cal/mol-K
   - Vibrational                    =    8.445 cal/mol-K
 P.Frequency     -196.08       -0.00       -0.00       -0.00       -0.00        0.00
 P.Frequency        0.00      354.47      392.39      459.15      540.05      709.31
 P.Frequency      929.59      946.51     1037.28     1081.28     1205.94     1454.94
 P.Frequency     1457.71     1523.22     1533.77     1702.21     3026.12     3086.24
 P.Frequency     3138.13     3139.06     3242.86

 Normal Eigenvalue ||           Projected Infra Red Intensities
  Mode   [cm**-1]  || [atomic units] [(debye/angs)**2] [(KM/mol)] [arbitrary]
 ------ ---------- || -------------- ----------------- ---------- -----------
    1     -196.083 ||    0.000036           0.001         0.035       0.026
    2       -0.000 ||    0.000736           0.017         0.717       0.535
    3       -0.000 ||    0.000048           0.001         0.046       0.035
    4       -0.000 ||    0.000981           0.023         0.956       0.713
    5       -0.000 ||    0.001272           0.029         1.240       0.925
    6        0.000 ||    0.000337           0.008         0.328       0.245
    7        0.000 ||    0.000696           0.016         0.679       0.506
    8      354.472 ||    0.000872           0.020         0.850       0.633
    9      392.393 ||    0.000264           0.006         0.257       0.192
   10      459.149 ||    0.012249           0.283        11.941       8.901
   11      540.054 ||    0.055178           1.273        53.790      40.096
   12      709.307 ||    0.000002           0.000         0.002       0.002
   13      929.592 ||    0.004752           0.110         4.633       3.453
   14      946.513 ||    0.057473           1.326        56.028      41.764
   15     1037.277 ||    0.005304           0.122         5.171       3.854
   16     1081.285 ||    0.001972           0.045         1.922       1.433
   17     1205.941 ||    0.082927           1.913        80.841      60.260
   18     1454.942 ||    0.007177           0.166         6.997       5.216
   19     1457.705 ||    0.004476           0.103         4.364       3.253
   20     1523.225 ||    0.012256           0.283        11.948       8.906
   21     1533.770 ||    0.013631           0.314        13.288       9.905
   22     1702.212 ||    0.054540           1.258        53.168      39.632
   23     3026.121 ||    0.025151           0.580        24.518      18.276
   24     3086.235 ||    0.016207           0.374        15.800      11.777
   25     3138.131 ||    0.003085           0.071         3.008       2.242
   26     3139.062 ||    0.006768           0.156         6.598       4.918
   27     3242.857 ||    0.003171           0.073         3.091       2.304
 ----------------------------------------------------------------------------

         Total DFT energy =     -579.746117013590
      Atom:    1  H
           isotropic =      30.1456
      Atom:    2  H
           isotropic =      30.1432
      Atom:    3  H
           isotropic =      31.1212
      Atom:    4  H
           isotropic =      27.0208
      Atom:    5  H
           isotropic =      27.2014
 Total times  cpu:     1206.3s     wall:     1065.1s
