============================== echo of input deck ==============================
start

title "Molecule conformer 0"

memory total 4000 mb

echo
geometry units angstroms
   C      1.1321    -0.0089    -0.1216
   C     -0.2831     0.4050     0.1500
   C     -1.2879    -0.4626    -0.0021
   Cl    -0.6256     2.0490     0.6743
   H      1.8241     0.8402     0.0580
   H      1.4159    -0.8470     0.5496
   H      1.2343    -0.3337    -1.1786
   H     -1.0985    -1.4821    -0.3248
   H     -2.3113    -0.1599     0.1953
end

basis spherical
* library 6-311G
end

driver
  maxiter 500
  xyz final
end

relativistic
  zora on
  zora:cutoff_NMR 1d-8
  zora:cutoff 1d-30
end

dft
  direct
  grid fine
  xc B3LYP
  mult 1
  maxiter 1500
  noprint "final vectors analysis" multipole
end

task dft optimize

task dft freq

property
  shielding 5 5 6 7 8 9
end

cosmo
   solvent cdcl3
end

task dft property
================================================================================

         Total DFT energy =     -579.735305347112
@ Step       Energy      Delta E   Gmax     Grms     Xrms     Xmax   Walltime
@ ---- ---------------- -------- -------- -------- -------- -------- --------
@    0    -579.73530535  0.0D+00  0.02807  0.00728  0.00000  0.00000     31.7
         Total DFT energy =     -579.739758012289
         Total DFT energy =     -579.740070825362
@    1    -579.74007083 -4.8D-03  0.01199  0.00308  0.06461  0.15840     74.9
         Total DFT energy =     -579.740684947402
         Total DFT energy =     -579.740784906138
@    2    -579.74078491 -7.1D-04  0.00475  0.00097  0.01518  0.03937    116.1
         Total DFT energy =     -579.740826621900
         Total DFT energy =   -579.740826621900
@    3    -579.74082662 -4.2D-05  0.00039  0.00013  0.00477  0.01491    138.9
         Total DFT energy =     -579.740829252651
         Total DFT energy =   -579.740829252651
@    4    -579.74082925 -2.6D-06  0.00016  0.00004  0.00161  0.00476    155.2
         Total DFT energy =     -579.740829574835
         Total DFT energy =   -579.740829574835
@    5    -579.74082957 -3.2D-07  0.00003  0.00001  0.00038  0.00097    167.9
@    5    -579.74082957 -3.2D-07  0.00003  0.00001  0.00038  0.00097    167.9

 Output coordinates in angstroms (scale by  1.889725989 to convert to a.u.)

  No.       Tag          Charge          X              Y              Z
 ---- ---------------- ---------- -------------- -------------- --------------
    1 C                    6.0000     1.14433596    -1.28370557     0.00000000
    2 C                    6.0000    -0.13354023    -0.49272723     0.00000000
    3 C                    6.0000    -1.37808582    -0.94724844     0.00000000
    4 Cl                  17.0000     0.11841775     1.34801668     0.00000000
    5 H                    1.0000     2.01662967    -0.63665244     0.00000000
    6 H                    1.0000     1.20035509    -1.92222970     0.88373326
    7 H                    1.0000     1.20035509    -1.92222970    -0.88373326
    8 H                    1.0000    -1.55707423    -2.01580619     0.00000000
    9 H                    1.0000    -2.23911583    -0.29757528     0.00000000

         Total DFT energy =     -579.740829494019
         Total DFT energy =     -579.740895383499
         Total DFT energy =     -579.740896334608
         Total DFT energy =     -579.740895333509
         Total DFT energy =     -579.740894498981
         Total DFT energy =     -579.740895579102
         Total DFT energy =     -579.740894746058
         Total DFT energy =     -579.740882305525
         Total DFT energy =     -579.740882179651
         Total DFT energy =     -579.740903940449
         Total DFT energy =     -579.740903895577
         Total DFT energy =     -579.740913049188
         Total DFT energy =     -579.740917286028
         Total DFT energy =     -579.740879644945
         Total DFT energy =     -579.740880070591
         Total DFT energy =     -579.740888379307
         Total DFT energy =     -579.740889410496
         Total DFT energy =     -579.740916683247
         Total DFT energy =     -579.740916234486
         Total DFT energy =     -579.740919909007
         Total DFT energy =     -579.740919670672
         Total DFT energy =     -579.740914061918
         Total DFT energy =     -579.740913647756
         Total DFT energy =     -579.740923040738
         Total DFT energy =     -579.740919685889
         Total DFT energy =     -579.740909987415
         Total DFT energy =     -579.740909533137
         Total DFT energy =     -579.740913752825
         Total DFT energy =     -579.740913655332
         Total DFT energy =     -579.740919436910
         Total DFT energy =     -579.740919454552
         Total DFT energy =     -579.740919343493
         Total DFT energy =     -579.740919024933
         Total DFT energy =     -579.740914279009
         Total DFT energy =     -579.740914870812
         Total DFT energy =     -579.740909571557
         Total DFT energy =     -579.740910482463
         Total DFT energy =     -579.740918774639
         Total DFT energy =     -579.740918677702
         Total DFT energy =     -579.740904463900
         Total DFT energy =     -579.740904718162
         Total DFT energy =     -579.740921090556
         Total DFT energy =     -579.740920436257
         Total DFT energy =     -579.740909168232
         Total DFT energy =     -579.740909238679
         Total DFT energy =     -579.740913916562
         Total DFT energy =     -579.740913152170
         Total DFT energy =     -579.740920512804
         Total DFT energy =     -579.740920906472
 Zero-Point correction to Energy  =   44.234 kcal/mol  (  0.070491 au)
 Thermal correction to Energy     =   46.905 kcal/mol  (  0.074749 au)
 Thermal correction to Enthalpy   =   47.498 kcal/mol  (  0.075692 au)
 Total Entropy                    =   68.430 cal/mol-K
   - Translational                =   38.883 cal/mol-K (mol. weight =  76.0080)
   - Rotational                   =   25.296 cal/mol-K (symmetry #  =        1)
   - Vibrational                  =    4.251 cal/mol-K
   - Translational                  =    2.979 cal/mol-K
   - Rotational                     =    2.979 cal/mol-K
   - Vibrational                    =    8.449 cal/mol-K
 P.Frequency     -197.84       -0.00        0.00        0.00        0.00        0.00
 P.Frequency        0.00      354.33      391.82      458.97      539.57      709.32
 P.Frequency      929.70      946.52     1037.30     1080.71     1205.78     1455.04
 P.Frequency     1458.09     1522.31     1533.12     1702.19     3024.99     3085.97
 P.Frequency     3138.64     3139.53     3242.85

 Normal Eigenvalue ||           Projected Infra Red Intensities
  Mode   [cm**-1]  || [atomic units] [(debye/angs)**2] [(KM/mol)] [arbitrary]
 ------ ---------- || -------------- ----------------- ---------- -----------
    1     -197.838 ||    0.000033           0.001         0.032       0.024
    2       -0.000 ||    0.001281           0.030         1.248       0.930
    3        0.000 ||    0.000048           0.001         0.047       0.035
    4        0.000 ||    0.000988           0.023         0.964       0.718
    5        0.000 ||    0.000318           0.007         0.310       0.231
    6        0.000 ||    0.000681           0.016         0.664       0.495
    7        0.000 ||    0.000749           0.017         0.730       0.544
    8      354.325 ||    0.000844           0.019         0.823       0.613
    9      391.815 ||    0.000274           0.006         0.267       0.199
   10      458.974 ||    0.012276           0.283        11.967       8.916
   11      539.571 ||    0.055194           1.273        53.806      40.087
   12      709.320 ||    0.000003           0.000         0.003       0.002
   13      929.701 ||    0.004767           0.110         4.647       3.462
   14      946.520 ||    0.057524           1.327        56.077      41.779
   15     1037.301 ||    0.005345           0.123         5.210       3.882
   16     1080.714 ||    0.001958           0.045         1.908       1.422
   17     1205.784 ||    0.083019           1.915        80.931      60.295
   18     1455.045 ||    0.006139           0.142         5.985       4.459
   19     1458.094 ||    0.005350           0.123         5.215       3.885
   20     1522.307 ||    0.012301           0.284        11.991       8.934
   21     1533.117 ||    0.013666           0.315        13.322       9.925
   22     1702.191 ||    0.054571           1.259        53.199      39.635
   23     3024.985 ||    0.025271           0.583        24.635      18.354
   24     3085.966 ||    0.016203           0.374        15.796      11.768
   25     3138.641 ||    0.002236           0.052         2.180       1.624
   26     3139.531 ||    0.007540           0.174         7.351       5.476
   27     3242.848 ||    0.003176           0.073         3.096       2.307
 ----------------------------------------------------------------------------

         Total DFT energy =     -579.746117090608
      Atom:    1  H
           isotropic =      31.1212
      Atom:    2  H
           isotropic =      30.1422
      Atom:    3  H
           isotropic =      30.1466
      Atom:    4  H
           isotropic =      27.0208
      Atom:    5  H
           isotropic =      27.2014
 Total times  cpu:     1094.5s     wall:     1041.8s
