============================== echo of input deck ==============================
start

title "Molecule conformer 0"

memory total 4000 mb

echo
geometry units angstroms
   C     -1.1366    -0.0616    -0.0291
   C      0.2922     0.3059    -0.2962
   C      1.2836    -0.2708     0.3893
   Cl     0.6686     1.5083    -1.5240
   H     -1.2904    -1.1445    -0.2219
   H     -1.3933     0.1637     1.0276
   H     -1.8144     0.5171    -0.6909
   H      2.3170    -0.0026     0.1937
   H      1.0734    -1.0154     1.1515
end

basis spherical
* library 6-311G
end

driver
  maxiter 500
  xyz final
end

relativistic
  zora on
  zora:cutoff_NMR 1d-8
  zora:cutoff 1d-30
end

dft
  direct
  grid fine
  xc B3LYP
  mult 1
  maxiter 1500
  noprint "final vectors analysis" multipole
end

task dft optimize

task dft freq

property
  shielding 5 5 6 7 8 9
end

cosmo
   solvent cdcl3
end

task dft property
================================================================================

         Total DFT energy =     -579.735299658201
@ Step       Energy      Delta E   Gmax     Grms     Xrms     Xmax   Walltime
@ ---- ---------------- -------- -------- -------- -------- -------- --------
@    0    -579.73529966  0.0D+00  0.02807  0.00728  0.00000  0.00000     31.0
         Total DFT energy =     -579.739757985009
         Total DFT energy =     -579.740069843857
@    1    -579.74006984 -4.8D-03  0.01200  0.00308  0.06460  0.15828     76.0
         Total DFT energy =     -579.740684570586
         Total DFT energy =     -579.740784818100
@    2    -579.74078482 -7.1D-04  0.00476  0.00097  0.01518  0.03937    116.7
         Total DFT energy =     -579.740826619800
         Total DFT energy =   -579.740826619800
@    3    -579.74082662 -4.2D-05  0.00038  0.00013  0.00477  0.01494    141.1
         Total DFT energy =     -579.740829250672
         Total DFT energy =   -579.740829250672
@    4    -579.74082925 -2.6D-06  0.00016  0.00004  0.00161  0.00476    157.0
         Total DFT energy =     -579.740829576577
         Total DFT energy =   -579.740829576577
@    5    -579.74082958 -3.3D-07  0.00003  0.00001  0.00038  0.00097    170.9
@    5    -579.74082958 -3.3D-07  0.00003  0.00001  0.00038  0.00097    170.9

 Output coordinates in angstroms (scale by  1.889725989 to convert to a.u.)

  No.       Tag          Charge          X              Y              Z
 ---- ---------------- ---------- -------------- -------------- --------------
    1 C                    6.0000    -1.14430745    -1.28372574     0.00000000
    2 C                    6.0000     0.13356128    -0.49273498     0.00000000
    3 C                    6.0000     1.37811120    -0.94724454     0.00000000
    4 Cl                  17.0000    -0.11841414     1.34800663     0.00000000
    5 H                    1.0000    -1.20032051    -1.92225047    -0.88373328
    6 H                    1.0000    -1.20032051    -1.92225047     0.88373328
    7 H                    1.0000    -2.01660710    -0.63668069     0.00000000
    8 H                    1.0000     2.23913502    -0.29756327     0.00000000
    9 H                    1.0000     1.55710778    -2.01580092     0.00000000

         Total DFT energy =     -579.740829494382
         Total DFT energy =     -579.740896595699
         Total DFT energy =     -579.740895643253
         Total DFT energy =     -579.740895594454
         Total DFT energy =     -579.740894759443
         Total DFT energy =     -579.740896052900
         Total DFT energy =     -579.740894793485
         Total DFT energy =     -579.740882437890
         Total DFT energy =     -579.740882568267
         Total DFT energy =     -579.740904200725
         Total DFT energy =     -579.740904156667
         Total DFT energy =     -579.740913612235
         Total DFT energy =     -579.740917243805
         Total DFT energy =     -579.740880327976
         Total DFT energy =     -579.740879908546
         Total DFT energy =     -579.740888640411
         Total DFT energy =     -579.740889670341
         Total DFT energy =     -579.740916841335
         Total DFT energy =     -579.740916597625
         Total DFT energy =     -579.740919933742
         Total DFT energy =     -579.740920163213
         Total DFT energy =     -579.740914321563
         Total DFT energy =     -579.740913904684
         Total DFT energy =     -579.740923106057
         Total DFT energy =     -579.740919792878
         Total DFT energy =     -579.740919349951
         Total DFT energy =     -579.740919537324
         Total DFT energy =     -579.740914740564
         Total DFT energy =     -579.740914930780
         Total DFT energy =     -579.740910359538
         Total DFT energy =     -579.740910218011
         Total DFT energy =     -579.740909788957
         Total DFT energy =     -579.740910247840
         Total DFT energy =     -579.740914008949
         Total DFT energy =     -579.740913916266
         Total DFT energy =     -579.740919663450
         Total DFT energy =     -579.740919744927
         Total DFT energy =     -579.740909499967
         Total DFT energy =     -579.740909428230
         Total DFT energy =     -579.740914176341
         Total DFT energy =     -579.740913413084
         Total DFT energy =     -579.740920803904
         Total DFT energy =     -579.740921136588
         Total DFT energy =     -579.740918940318
         Total DFT energy =     -579.740919033729
         Total DFT energy =     -579.740904724906
         Total DFT energy =     -579.740904978287
         Total DFT energy =     -579.740921263292
         Total DFT energy =     -579.740920784694
 Zero-Point correction to Energy  =   44.239 kcal/mol  (  0.070500 au)
 Thermal correction to Energy     =   46.910 kcal/mol  (  0.074756 au)
 Thermal correction to Enthalpy   =   47.502 kcal/mol  (  0.075699 au)
 Total Entropy                    =   68.424 cal/mol-K
   - Translational                =   38.883 cal/mol-K (mol. weight =  76.0080)
   - Rotational                   =   25.296 cal/mol-K (symmetry #  =        1)
   - Vibrational                  =    4.246 cal/mol-K
   - Translational                  =    2.979 cal/mol-K
   - Rotational                     =    2.979 cal/mol-K
   - Vibrational                    =    8.445 cal/mol-K
 P.Frequency     -196.08       -0.00       -0.00       -0.00        0.00        0.00
 P.Frequency        0.00      354.45      392.70      459.15      540.12      709.33
 P.Frequency      929.73      946.51     1037.29     1081.28     1206.14     1454.62
 P.Frequency     1457.43     1523.23     1533.77     1702.21     3026.12     3086.24
 P.Frequency     3138.19     3139.33     3242.71

 Normal Eigenvalue ||           Projected Infra Red Intensities
  Mode   [cm**-1]  || [atomic units] [(debye/angs)**2] [(KM/mol)] [arbitrary]
 ------ ---------- || -------------- ----------------- ---------- -----------
    1     -196.076 ||    0.000036           0.001         0.035       0.026
    2       -0.000 ||    0.000652           0.015         0.636       0.474
    3       -0.000 ||    0.000631           0.015         0.616       0.459
    4       -0.000 ||    0.000302           0.007         0.294       0.220
    5        0.000 ||    0.001222           0.028         1.191       0.888
    6        0.000 ||    0.000822           0.019         0.802       0.598
    7        0.000 ||    0.000439           0.010         0.428       0.319
    8      354.447 ||    0.000871           0.020         0.849       0.633
    9      392.702 ||    0.000262           0.006         0.255       0.190
   10      459.150 ||    0.012249           0.283        11.941       8.901
   11      540.115 ||    0.055198           1.273        53.810      40.110
   12      709.328 ||    0.000002           0.000         0.002       0.002
   13      929.731 ||    0.004802           0.111         4.682       3.490
   14      946.510 ||    0.057473           1.326        56.028      41.764
   15     1037.287 ||    0.005283           0.122         5.151       3.839
   16     1081.284 ||    0.001972           0.045         1.922       1.433
   17     1206.142 ||    0.082888           1.912        80.803      60.232
   18     1454.620 ||    0.005986           0.138         5.836       4.350
   19     1457.431 ||    0.005668           0.131         5.525       4.118
   20     1523.228 ||    0.012253           0.283        11.945       8.904
   21     1533.770 ||    0.013631           0.314        13.289       9.905
   22     1702.211 ||    0.054536           1.258        53.164      39.629
   23     3026.120 ||    0.025149           0.580        24.517      18.275
   24     3086.236 ||    0.016207           0.374        15.800      11.777
   25     3138.190 ||    0.003660           0.084         3.568       2.659
   26     3139.332 ||    0.006208           0.143         6.052       4.511
   27     3242.710 ||    0.003157           0.073         3.078       2.294
 ----------------------------------------------------------------------------

         Total DFT energy =     -579.746117015387
      Atom:    1  H
           isotropic =      30.1456
      Atom:    2  H
           isotropic =      30.1432
      Atom:    3  H
           isotropic =      31.1212
      Atom:    4  H
           isotropic =      27.2014
      Atom:    5  H
           isotropic =      27.0208
 Total times  cpu:     1171.2s     wall:     1070.8s
