============================== echo of input deck ==============================
start

title "Molecule conformer 0"

memory total 4000 mb

echo
geometry units angstroms
   C     -1.1282    -0.1449    -0.0514
   C      0.2420     0.4482     0.0850
   C      1.3305    -0.3188    -0.0263
   Cl     0.4199     2.1708     0.3945
   H     -1.2831    -0.9209     0.7278
   H     -1.9029     0.6408     0.0704
   H     -1.2426    -0.6045    -1.0558
   H      1.2432    -1.3843    -0.2172
   H      2.3211     0.1135     0.0729
end

basis spherical
* library 6-311G
end

driver
  maxiter 500
  xyz final
end

relativistic
  zora on
  zora:cutoff_NMR 1d-8
  zora:cutoff 1d-30
end

dft
  direct
  grid fine
  xc B3LYP
  mult 1
  maxiter 1500
  noprint "final vectors analysis" multipole
end

task dft optimize

task dft freq

property
  shielding 5 5 6 7 8 9
end

cosmo
   solvent cdcl3
end

task dft property
================================================================================

         Total DFT energy =     -579.735297993199
@ Step       Energy      Delta E   Gmax     Grms     Xrms     Xmax   Walltime
@ ---- ---------------- -------- -------- -------- -------- -------- --------
@    0    -579.73529799  0.0D+00  0.02808  0.00728  0.00000  0.00000     29.1
         Total DFT energy =     -579.739756749032
         Total DFT energy =     -579.740069870532
@    1    -579.74006987 -4.8D-03  0.01201  0.00308  0.06462  0.15838     74.3
         Total DFT energy =     -579.740684748810
         Total DFT energy =     -579.740784849356
@    2    -579.74078485 -7.1D-04  0.00475  0.00097  0.01518  0.03940    113.1
         Total DFT energy =     -579.740826617663
         Total DFT energy =   -579.740826617663
@    3    -579.74082662 -4.2D-05  0.00038  0.00013  0.00477  0.01492    136.1
         Total DFT energy =     -579.740829251915
         Total DFT energy =   -579.740829251915
@    4    -579.74082925 -2.6D-06  0.00016  0.00004  0.00161  0.00477    151.3
         Total DFT energy =     -579.740829578858
         Total DFT energy =   -579.740829578858
@    5    -579.74082958 -3.3D-07  0.00003  0.00001  0.00038  0.00097    164.5
@    5    -579.74082958 -3.3D-07  0.00003  0.00001  0.00038  0.00097    164.5

 Output coordinates in angstroms (scale by  1.889725989 to convert to a.u.)

  No.       Tag          Charge          X              Y              Z
 ---- ---------------- ---------- -------------- -------------- --------------
    1 C                    6.0000    -1.14436633    -1.28364818     0.00000000
    2 C                    6.0000     0.13354165    -0.49272104     0.00000000
    3 C                    6.0000     1.37806910    -0.94729215     0.00000000
    4 Cl                  17.0000    -0.11834243     1.34803305     0.00000000
    5 H                    1.0000    -1.20041060    -1.92217055     0.88373295
    6 H                    1.0000    -2.01663412    -0.63656022     0.00000000
    7 H                    1.0000    -1.20041060    -1.92217055    -0.88373295
    8 H                    1.0000     1.55701348    -2.01585731     0.00000000
    9 H                    1.0000     2.23912510    -0.29765359     0.00000000

         Total DFT energy =     -579.740829497686
         Total DFT energy =     -579.740896596837
         Total DFT energy =     -579.740895643097
         Total DFT energy =     -579.740895592795
         Total DFT energy =     -579.740894761009
         Total DFT energy =     -579.740895949580
         Total DFT energy =     -579.740894896993
         Total DFT energy =     -579.740882439018
         Total DFT energy =     -579.740882568372
         Total DFT energy =     -579.740904201135
         Total DFT energy =     -579.740904155981
         Total DFT energy =     -579.740913608833
         Total DFT energy =     -579.740917247431
         Total DFT energy =     -579.740880328751
         Total DFT energy =     -579.740879908741
         Total DFT energy =     -579.740888639936
         Total DFT energy =     -579.740889670866
         Total DFT energy =     -579.740916841535
         Total DFT energy =     -579.740916597691
         Total DFT energy =     -579.740919934034
         Total DFT energy =     -579.740920163540
         Total DFT energy =     -579.740914322085
         Total DFT energy =     -579.740913904668
         Total DFT energy =     -579.740923106211
         Total DFT energy =     -579.740920137567
         Total DFT energy =     -579.740909790031
         Total DFT energy =     -579.740910248637
         Total DFT energy =     -579.740914008610
         Total DFT energy =     -579.740913915672
         Total DFT energy =     -579.740919657887
         Total DFT energy =     -579.740919750674
         Total DFT energy =     -579.740919285997
         Total DFT energy =     -579.740919603935
         Total DFT energy =     -579.740914552032
         Total DFT energy =     -579.740915119631
         Total DFT energy =     -579.740909822577
         Total DFT energy =     -579.740910752853
         Total DFT energy =     -579.740918940071
         Total DFT energy =     -579.740919034893
         Total DFT energy =     -579.740904725004
         Total DFT energy =     -579.740904978216
         Total DFT energy =     -579.740921263968
         Total DFT energy =     -579.740920784264
         Total DFT energy =     -579.740909499501
         Total DFT energy =     -579.740909427777
         Total DFT energy =     -579.740914177864
         Total DFT energy =     -579.740913413561
         Total DFT energy =     -579.740920803286
         Total DFT energy =     -579.740921137490
 Zero-Point correction to Energy  =   44.234 kcal/mol  (  0.070491 au)
 Thermal correction to Energy     =   46.906 kcal/mol  (  0.074749 au)
 Thermal correction to Enthalpy   =   47.498 kcal/mol  (  0.075692 au)
 Total Entropy                    =   68.430 cal/mol-K
   - Translational                =   38.883 cal/mol-K (mol. weight =  76.0080)
   - Rotational                   =   25.296 cal/mol-K (symmetry #  =        1)
   - Vibrational                  =    4.251 cal/mol-K
   - Translational                  =    2.979 cal/mol-K
   - Rotational                     =    2.979 cal/mol-K
   - Vibrational                    =    8.449 cal/mol-K
 P.Frequency     -197.86        0.00        0.00        0.00        0.00        0.00
 P.Frequency        0.00      354.34      391.88      458.99      539.61      709.33
 P.Frequency      929.71      946.52     1037.29     1080.70     1205.81     1455.05
 P.Frequency     1458.10     1522.30     1533.11     1702.20     3024.98     3085.94
 P.Frequency     3138.63     3139.52     3242.84

 Normal Eigenvalue ||           Projected Infra Red Intensities
  Mode   [cm**-1]  || [atomic units] [(debye/angs)**2] [(KM/mol)] [arbitrary]
 ------ ---------- || -------------- ----------------- ---------- -----------
    1     -197.865 ||    0.000033           0.001         0.032       0.024
    2        0.000 ||    0.000289           0.007         0.282       0.210
    3        0.000 ||    0.001275           0.029         1.243       0.926
    4        0.000 ||    0.000491           0.011         0.479       0.357
    5        0.000 ||    0.000785           0.018         0.765       0.570
    6        0.000 ||    0.000775           0.018         0.755       0.563
    7        0.000 ||    0.000449           0.010         0.438       0.326
    8      354.342 ||    0.000847           0.020         0.825       0.615
    9      391.882 ||    0.000273           0.006         0.266       0.198
   10      458.990 ||    0.012277           0.283        11.968       8.919
   11      539.610 ||    0.055170           1.273        53.783      40.079
   12      709.330 ||    0.000003           0.000         0.003       0.002
   13      929.706 ||    0.004767           0.110         4.647       3.463
   14      946.522 ||    0.057523           1.327        56.076      41.788
   15     1037.292 ||    0.005329           0.123         5.195       3.871
   16     1080.704 ||    0.001962           0.045         1.912       1.425
   17     1205.812 ||    0.083043           1.916        80.955      60.328
   18     1455.046 ||    0.006132           0.141         5.977       4.454
   19     1458.098 ||    0.005346           0.123         5.212       3.884
   20     1522.301 ||    0.012300           0.284        11.991       8.935
   21     1533.114 ||    0.013666           0.315        13.322       9.928
   22     1702.198 ||    0.054562           1.259        53.190      39.638
   23     3024.983 ||    0.025202           0.581        24.568      18.308
   24     3085.943 ||    0.016209           0.374        15.802      11.776
   25     3138.633 ||    0.002218           0.051         2.162       1.611
   26     3139.519 ||    0.007560           0.174         7.370       5.492
   27     3242.841 ||    0.003178           0.073         3.098       2.309
 ----------------------------------------------------------------------------

         Total DFT energy =     -579.746116987498
      Atom:    1  H
           isotropic =      30.1424
      Atom:    2  H
           isotropic =      31.1212
      Atom:    3  H
           isotropic =      30.1464
      Atom:    4  H
           isotropic =      27.0208
      Atom:    5  H
           isotropic =      27.2014
 Total times  cpu:     1173.8s     wall:     1061.4s
