============================== echo of input deck ==============================
start

title "Molecule conformer 0"

memory total 4000 mb

echo
geometry units angstroms
   C     -1.1059    -0.2439     0.1186
   C      0.1994     0.4732    -0.0546
   C      1.3486    -0.2065    -0.1055
   Cl     0.2194     2.2269    -0.1923
   H     -1.2644    -0.9487    -0.7249
   H     -1.9456     0.4819     0.1380
   H     -1.1022    -0.8093     1.0744
   H      1.3588    -1.2893    -0.0226
   H      2.2919     0.3155    -0.2310
end

basis spherical
* library 6-311G
end

driver
  maxiter 500
  xyz final
end

relativistic
  zora on
  zora:cutoff_NMR 1d-8
  zora:cutoff 1d-30
end

dft
  direct
  grid fine
  xc B3LYP
  mult 1
  maxiter 1500
  noprint "final vectors analysis" multipole
end

task dft optimize

task dft freq

property
  shielding 5 5 6 7 8 9
end

cosmo
   solvent cdcl3
end

task dft property
================================================================================

         Total DFT energy =     -579.735301177712
@ Step       Energy      Delta E   Gmax     Grms     Xrms     Xmax   Walltime
@ ---- ---------------- -------- -------- -------- -------- -------- --------
@    0    -579.73530118  0.0D+00  0.02808  0.00728  0.00000  0.00000     28.8
         Total DFT energy =     -579.739757207919
         Total DFT energy =     -579.740069461832
@    1    -579.74006946 -4.8D-03  0.01200  0.00309  0.06461  0.15835     73.9
         Total DFT energy =     -579.740684682017
         Total DFT energy =     -579.740784832624
@    2    -579.74078483 -7.2D-04  0.00476  0.00097  0.01518  0.03935    114.5
         Total DFT energy =     -579.740826625047
         Total DFT energy =   -579.740826625047
@    3    -579.74082663 -4.2D-05  0.00038  0.00013  0.00477  0.01493    138.6
         Total DFT energy =     -579.740829251054
         Total DFT energy =   -579.740829251054
@    4    -579.74082925 -2.6D-06  0.00016  0.00004  0.00161  0.00476    154.6
         Total DFT energy =     -579.740829576683
         Total DFT energy =   -579.740829576683
@    5    -579.74082958 -3.3D-07  0.00003  0.00001  0.00038  0.00098    167.8
@    5    -579.74082958 -3.3D-07  0.00003  0.00001  0.00038  0.00098    167.8

 Output coordinates in angstroms (scale by  1.889725989 to convert to a.u.)

  No.       Tag          Charge          X              Y              Z
 ---- ---------------- ---------- -------------- -------------- --------------
    1 C                    6.0000    -1.14432606    -1.28367930     0.00000000
    2 C                    6.0000     0.13355499    -0.49270920     0.00000000
    3 C                    6.0000     1.37809759    -0.94723865     0.00000000
    4 Cl                  17.0000    -0.11839090     1.34803641     0.00000000
    5 H                    1.0000    -1.20034962    -1.92220355    -0.88373307
    6 H                    1.0000    -2.01661575    -0.63662080     0.00000000
    7 H                    1.0000    -1.20034962    -1.92220355     0.88373307
    8 H                    1.0000     1.55707692    -2.01579799     0.00000000
    9 H                    1.0000     2.23913209    -0.29757147     0.00000000

         Total DFT energy =     -579.740829494485
         Total DFT energy =     -579.740896593355
         Total DFT energy =     -579.740895645912
         Total DFT energy =     -579.740895591868
         Total DFT energy =     -579.740894762063
         Total DFT energy =     -579.740896053031
         Total DFT energy =     -579.740894793616
         Total DFT energy =     -579.740882439117
         Total DFT energy =     -579.740882567458
         Total DFT energy =     -579.740904201840
         Total DFT energy =     -579.740904155514
         Total DFT energy =     -579.740913612329
         Total DFT energy =     -579.740917243927
         Total DFT energy =     -579.740880329094
         Total DFT energy =     -579.740879907811
         Total DFT energy =     -579.740888639587
         Total DFT energy =     -579.740889671264
         Total DFT energy =     -579.740916841446
         Total DFT energy =     -579.740916597731
         Total DFT energy =     -579.740919933703
         Total DFT energy =     -579.740920163197
         Total DFT energy =     -579.740914321956
         Total DFT energy =     -579.740913904592
         Total DFT energy =     -579.740923106109
         Total DFT energy =     -579.740920137496
         Total DFT energy =     -579.740909789648
         Total DFT energy =     -579.740910247811
         Total DFT energy =     -579.740914009223
         Total DFT energy =     -579.740913915787
         Total DFT energy =     -579.740919663561
         Total DFT energy =     -579.740919745039
         Total DFT energy =     -579.740919350437
         Total DFT energy =     -579.740919537025
         Total DFT energy =     -579.740914741315
         Total DFT energy =     -579.740914929993
         Total DFT energy =     -579.740910359695
         Total DFT energy =     -579.740910218101
         Total DFT energy =     -579.740918940471
         Total DFT energy =     -579.740919033962
         Total DFT energy =     -579.740904725317
         Total DFT energy =     -579.740904977957
         Total DFT energy =     -579.740921263406
         Total DFT energy =     -579.740920784802
         Total DFT energy =     -579.740909499423
         Total DFT energy =     -579.740909428544
         Total DFT energy =     -579.740914176780
         Total DFT energy =     -579.740913413362
         Total DFT energy =     -579.740920804013
         Total DFT energy =     -579.740921136620
 Zero-Point correction to Energy  =   44.235 kcal/mol  (  0.070492 au)
 Thermal correction to Energy     =   46.906 kcal/mol  (  0.074750 au)
 Thermal correction to Enthalpy   =   47.498 kcal/mol  (  0.075694 au)
 Total Entropy                    =   68.429 cal/mol-K
   - Translational                =   38.883 cal/mol-K (mol. weight =  76.0080)
   - Rotational                   =   25.296 cal/mol-K (symmetry #  =        1)
   - Vibrational                  =    4.251 cal/mol-K
   - Translational                  =    2.979 cal/mol-K
   - Rotational                     =    2.979 cal/mol-K
   - Vibrational                    =    8.448 cal/mol-K
 P.Frequency     -196.82       -0.00       -0.00       -0.00        0.00        0.00
 P.Frequency        0.00      354.37      391.81      459.02      539.60      709.31
 P.Frequency      929.70      946.54     1037.40     1081.05     1205.86     1455.07
 P.Frequency     1458.23     1522.51     1533.22     1702.20     3024.79     3085.73
 P.Frequency     3138.62     3139.50     3242.84

 Normal Eigenvalue ||           Projected Infra Red Intensities
  Mode   [cm**-1]  || [atomic units] [(debye/angs)**2] [(KM/mol)] [arbitrary]
 ------ ---------- || -------------- ----------------- ---------- -----------
    1     -196.821 ||    0.000033           0.001         0.032       0.024
    2       -0.000 ||    0.000491           0.011         0.479       0.357
    3       -0.000 ||    0.000785           0.018         0.765       0.570
    4       -0.000 ||    0.000455           0.011         0.444       0.331
    5        0.000 ||    0.001276           0.029         1.244       0.927
    6        0.000 ||    0.000289           0.007         0.281       0.210
    7        0.000 ||    0.000774           0.018         0.755       0.562
    8      354.374 ||    0.000846           0.020         0.825       0.615
    9      391.811 ||    0.000276           0.006         0.269       0.201
   10      459.019 ||    0.012266           0.283        11.958       8.914
   11      539.601 ||    0.055161           1.273        53.773      40.083
   12      709.314 ||    0.000003           0.000         0.003       0.002
   13      929.700 ||    0.004765           0.110         4.645       3.463
   14      946.540 ||    0.057498           1.327        56.052      41.781
   15     1037.396 ||    0.005328           0.123         5.194       3.871
   16     1081.050 ||    0.001964           0.045         1.914       1.427
   17     1205.862 ||    0.083008           1.915        80.920      60.319
   18     1455.071 ||    0.005961           0.138         5.811       4.331
   19     1458.232 ||    0.005583           0.129         5.443       4.057
   20     1522.508 ||    0.012283           0.283        11.974       8.925
   21     1533.223 ||    0.013626           0.314        13.283       9.901
   22     1702.200 ||    0.054563           1.259        53.191      39.649
   23     3024.794 ||    0.025178           0.581        24.545      18.296
   24     3085.728 ||    0.016182           0.373        15.775      11.759
   25     3138.624 ||    0.002196           0.051         2.141       1.596
   26     3139.498 ||    0.007595           0.175         7.404       5.519
   27     3242.841 ||    0.003178           0.073         3.098       2.310
 ----------------------------------------------------------------------------

         Total DFT energy =     -579.746117006194
      Atom:    1  H
           isotropic =      30.1456
      Atom:    2  H
           isotropic =      31.1212
      Atom:    3  H
           isotropic =      30.1432
      Atom:    4  H
           isotropic =      27.0208
      Atom:    5  H
           isotropic =      27.2014
 Total times  cpu:     1173.2s     wall:     1057.0s
