============================== echo of input deck ==============================
start

title "Molecule conformer 0"

memory total 4000 mb

echo
geometry units angstroms
   C     -1.1357    -0.0699    -0.0420
   C      0.2764     0.1635     0.4044
   C      1.3009    -0.0919    -0.4145
   Cl     0.5891     0.7796     2.0223
   H     -1.2779    -1.1404    -0.3011
   H     -1.3589     0.5564    -0.9316
   H     -1.8460     0.1972     0.7681
   H      2.3221     0.0781    -0.0884
   H      1.1301    -0.4726    -1.4172
end

basis spherical
* library 6-311G
end

driver
  maxiter 500
  xyz final
end

relativistic
  zora on
  zora:cutoff_NMR 1d-8
  zora:cutoff 1d-30
end

dft
  direct
  grid fine
  xc B3LYP
  mult 1
  maxiter 1500
  noprint "final vectors analysis" multipole
end

task dft optimize

task dft freq

property
  shielding 5 5 6 7 8 9
end

cosmo
   solvent cdcl3
end

task dft property
================================================================================

         Total DFT energy =     -579.735302484860
@ Step       Energy      Delta E   Gmax     Grms     Xrms     Xmax   Walltime
@ ---- ---------------- -------- -------- -------- -------- -------- --------
@    0    -579.73530248  0.0D+00  0.02807  0.00728  0.00000  0.00000     28.7
         Total DFT energy =     -579.739758294795
         Total DFT energy =     -579.740070388104
@    1    -579.74007039 -4.8D-03  0.01200  0.00308  0.06461  0.15841     71.9
         Total DFT energy =     -579.740684738055
         Total DFT energy =     -579.740784858776
@    2    -579.74078486 -7.1D-04  0.00476  0.00097  0.01518  0.03937    112.1
         Total DFT energy =     -579.740826634737
         Total DFT energy =   -579.740826634737
@    3    -579.74082663 -4.2D-05  0.00039  0.00013  0.00477  0.01493    134.8
         Total DFT energy =     -579.740829268115
         Total DFT energy =   -579.740829268115
@    4    -579.74082927 -2.6D-06  0.00016  0.00004  0.00161  0.00476    150.9
         Total DFT energy =     -579.740829594647
         Total DFT energy =   -579.740829594647
@    5    -579.74082959 -3.3D-07  0.00003  0.00001  0.00038  0.00097    163.8
@    5    -579.74082959 -3.3D-07  0.00003  0.00001  0.00038  0.00097    163.8

 Output coordinates in angstroms (scale by  1.889725989 to convert to a.u.)

  No.       Tag          Charge          X              Y              Z
 ---- ---------------- ---------- -------------- -------------- --------------
    1 C                    6.0000    -1.14431779     1.28372241     0.00000000
    2 C                    6.0000     0.13355266     0.49273436     0.00000000
    3 C                    6.0000     1.37810168     0.94724636     0.00000000
    4 Cl                  17.0000    -0.11841891    -1.34800772     0.00000000
    5 H                    1.0000    -1.20033199     1.92224688    -0.88373334
    6 H                    1.0000    -1.20033199     1.92224688     0.88373334
    7 H                    1.0000    -2.01661610     0.63667550     0.00000000
    8 H                    1.0000     2.23912672     0.29756667     0.00000000
    9 H                    1.0000     1.55709741     2.01580287     0.00000000

         Total DFT energy =     -579.740829512893
         Total DFT energy =     -579.740895876751
         Total DFT energy =     -579.740894923341
         Total DFT energy =     -579.740894039263
         Total DFT energy =     -579.740894876718
         Total DFT energy =     -579.740895150440
         Total DFT energy =     -579.740894256982
         Total DFT energy =     -579.740881719585
         Total DFT energy =     -579.740881847987
         Total DFT energy =     -579.740903436672
         Total DFT energy =     -579.740903482565
         Total DFT energy =     -579.740914168902
         Total DFT energy =     -579.740915248193
         Total DFT energy =     -579.740879610062
         Total DFT energy =     -579.740879187493
         Total DFT energy =     -579.740888950276
         Total DFT energy =     -579.740887921220
         Total DFT energy =     -579.740916025403
         Total DFT energy =     -579.740915974624
         Total DFT energy =     -579.740919214636
         Total DFT energy =     -579.740919446169
         Total DFT energy =     -579.740913187803
         Total DFT energy =     -579.740913599600
         Total DFT energy =     -579.740921350907
         Total DFT energy =     -579.740920453769
         Total DFT energy =     -579.740918643279
         Total DFT energy =     -579.740918805423
         Total DFT energy =     -579.740914246196
         Total DFT energy =     -579.740913986736
         Total DFT energy =     -579.740909707227
         Total DFT energy =     -579.740909431081
         Total DFT energy =     -579.740909069934
         Total DFT energy =     -579.740909528569
         Total DFT energy =     -579.740913196924
         Total DFT energy =     -579.740913289554
         Total DFT energy =     -579.740918922422
         Total DFT energy =     -579.740919047018
         Total DFT energy =     -579.740908780273
         Total DFT energy =     -579.740908709077
         Total DFT energy =     -579.740912693275
         Total DFT energy =     -579.740913457236
         Total DFT energy =     -579.740920165649
         Total DFT energy =     -579.740920335911
         Total DFT energy =     -579.740918220728
         Total DFT energy =     -579.740918317138
         Total DFT energy =     -579.740904258559
         Total DFT energy =     -579.740904005356
         Total DFT energy =     -579.740920388180
         Total DFT energy =     -579.740920220875
 Zero-Point correction to Energy  =   44.239 kcal/mol  (  0.070500 au)
 Thermal correction to Energy     =   46.910 kcal/mol  (  0.074756 au)
 Thermal correction to Enthalpy   =   47.502 kcal/mol  (  0.075700 au)
 Total Entropy                    =   68.424 cal/mol-K
   - Translational                =   38.883 cal/mol-K (mol. weight =  76.0080)
   - Rotational                   =   25.296 cal/mol-K (symmetry #  =        1)
   - Vibrational                  =    4.245 cal/mol-K
   - Translational                  =    2.979 cal/mol-K
   - Rotational                     =    2.979 cal/mol-K
   - Vibrational                    =    8.444 cal/mol-K
 P.Frequency     -196.23       -0.00        0.00        0.00        0.00        0.00
 P.Frequency        0.00      354.47      392.73      459.15      540.25      709.35
 P.Frequency      929.78      946.52     1037.25     1081.27     1206.12     1454.63
 P.Frequency     1457.48     1523.19     1533.77     1702.25     3026.13     3086.22
 P.Frequency     3138.16     3139.32     3242.69

 Normal Eigenvalue ||           Projected Infra Red Intensities
  Mode   [cm**-1]  || [atomic units] [(debye/angs)**2] [(KM/mol)] [arbitrary]
 ------ ---------- || -------------- ----------------- ---------- -----------
    1     -196.228 ||    0.000036           0.001         0.035       0.026
    2       -0.000 ||    0.000303           0.007         0.295       0.220
    3        0.000 ||    0.001223           0.028         1.192       0.890
    4        0.000 ||    0.000649           0.015         0.633       0.472
    5        0.000 ||    0.000625           0.014         0.609       0.455
    6        0.000 ||    0.000819           0.019         0.798       0.596
    7        0.000 ||    0.000440           0.010         0.429       0.320
    8      354.472 ||    0.000875           0.020         0.853       0.636
    9      392.735 ||    0.000259           0.006         0.252       0.188
   10      459.149 ||    0.012237           0.282        11.929       8.903
   11      540.247 ||    0.055129           1.272        53.742      40.111
   12      709.350 ||    0.000002           0.000         0.002       0.002
   13      929.778 ||    0.004797           0.111         4.676       3.490
   14      946.521 ||    0.057461           1.326        56.016      41.808
   15     1037.249 ||    0.005230           0.121         5.098       3.805
   16     1081.272 ||    0.001972           0.046         1.923       1.435
   17     1206.125 ||    0.082936           1.913        80.850      60.343
   18     1454.628 ||    0.005995           0.138         5.844       4.362
   19     1457.478 ||    0.005625           0.130         5.484       4.093
   20     1523.191 ||    0.012215           0.282        11.908       8.887
   21     1533.765 ||    0.013629           0.314        13.286       9.916
   22     1702.248 ||    0.054506           1.257        53.135      39.657
   23     3026.135 ||    0.024847           0.573        24.222      18.078
   24     3086.225 ||    0.016241           0.375        15.832      11.817
   25     3138.161 ||    0.003728           0.086         3.635       2.713
   26     3139.325 ||    0.006146           0.142         5.991       4.471
   27     3242.690 ||    0.003169           0.073         3.089       2.305
 ----------------------------------------------------------------------------

         Total DFT energy =     -579.746116657250
      Atom:    1  H
           isotropic =      30.1452
      Atom:    2  H
           isotropic =      30.1436
      Atom:    3  H
           isotropic =      31.1212
      Atom:    4  H
           isotropic =      27.2014
      Atom:    5  H
           isotropic =      27.0208
 Total times  cpu:     1077.7s     wall:     1034.8s
