============================== echo of input deck ==============================
start

title "Molecule conformer 0"

memory total 4000 mb

echo
geometry units angstroms
   C     -1.1364     0.0497    -0.0499
   C      0.3219     0.3968    -0.0748
   C      1.2486    -0.5369     0.1593
   Cl     0.8194     2.0495    -0.4156
   H     -1.7511     0.9485    -0.2657
   H     -1.3540    -0.7227    -0.8176
   H     -1.4150    -0.3394     0.9522
   H      2.3035    -0.2825     0.1405
   H      0.9632    -1.5630     0.3716
end

basis spherical
* library 6-311G
end

driver
  maxiter 500
  xyz final
end

relativistic
  zora on
  zora:cutoff_NMR 1d-8
  zora:cutoff 1d-30
end

dft
  direct
  grid fine
  xc B3LYP
  mult 1
  maxiter 1500
  noprint "final vectors analysis" multipole
end

task dft optimize

task dft freq

property
  shielding 5 5 6 7 8 9
end

cosmo
   solvent cdcl3
end

task dft property
================================================================================

         Total DFT energy =     -579.735306094846
@ Step       Energy      Delta E   Gmax     Grms     Xrms     Xmax   Walltime
@ ---- ---------------- -------- -------- -------- -------- -------- --------
@    0    -579.73530609  0.0D+00  0.02805  0.00728  0.00000  0.00000     33.4
         Total DFT energy =     -579.739758648528
         Total DFT energy =     -579.740070721981
@    1    -579.74007072 -4.8D-03  0.01200  0.00308  0.06462  0.15845     78.0
         Total DFT energy =     -579.740684871378
         Total DFT energy =     -579.740784819645
@    2    -579.74078482 -7.1D-04  0.00476  0.00097  0.01517  0.03935    118.2
         Total DFT energy =     -579.740826613788
         Total DFT energy =   -579.740826613788
@    3    -579.74082661 -4.2D-05  0.00039  0.00013  0.00477  0.01492    141.6
         Total DFT energy =     -579.740829249365
         Total DFT energy =   -579.740829249365
@    4    -579.74082925 -2.6D-06  0.00016  0.00004  0.00161  0.00476    157.8
         Total DFT energy =     -579.740829576729
         Total DFT energy =   -579.740829576729
@    5    -579.74082958 -3.3D-07  0.00003  0.00001  0.00038  0.00097    170.5
@    5    -579.74082958 -3.3D-07  0.00003  0.00001  0.00038  0.00097    170.5

 Output coordinates in angstroms (scale by  1.889725989 to convert to a.u.)

  No.       Tag          Charge          X              Y              Z
 ---- ---------------- ---------- -------------- -------------- --------------
    1 C                    6.0000    -1.14433098    -1.28373633     0.00000000
    2 C                    6.0000     0.13353140    -0.49273517     0.00000000
    3 C                    6.0000     1.37808523    -0.94723406     0.00000000
    4 Cl                  17.0000    -0.11845936     1.34800448     0.00000000
    5 H                    1.0000    -2.01663599    -0.63669849     0.00000000
    6 H                    1.0000    -1.20033834    -1.92226153    -0.88373324
    7 H                    1.0000    -1.20033834    -1.92226153     0.88373324
    8 H                    1.0000     2.23910343    -0.29754519     0.00000000
    9 H                    1.0000     1.55709267    -2.01578858     0.00000000

         Total DFT energy =     -579.740829495370
         Total DFT energy =     -579.740896596957
         Total DFT energy =     -579.740895641704
         Total DFT energy =     -579.740895594466
         Total DFT energy =     -579.740894759362
         Total DFT energy =     -579.740896052797
         Total DFT energy =     -579.740894793379
         Total DFT energy =     -579.740882437097
         Total DFT energy =     -579.740882568176
         Total DFT energy =     -579.740904200709
         Total DFT energy =     -579.740904156646
         Total DFT energy =     -579.740913612137
         Total DFT energy =     -579.740917243695
         Total DFT energy =     -579.740880329459
         Total DFT energy =     -579.740879906760
         Total DFT energy =     -579.740888641232
         Total DFT energy =     -579.740889669423
         Total DFT energy =     -579.740916841215
         Total DFT energy =     -579.740916597508
         Total DFT energy =     -579.740919933674
         Total DFT energy =     -579.740920162973
         Total DFT energy =     -579.740914321425
         Total DFT energy =     -579.740913904934
         Total DFT energy =     -579.740923105955
         Total DFT energy =     -579.740919792790
         Total DFT energy =     -579.740909788899
         Total DFT energy =     -579.740910247472
         Total DFT energy =     -579.740914008826
         Total DFT energy =     -579.740913916423
         Total DFT energy =     -579.740919663354
         Total DFT energy =     -579.740919744831
         Total DFT energy =     -579.740919349424
         Total DFT energy =     -579.740919537388
         Total DFT energy =     -579.740914740255
         Total DFT energy =     -579.740914930576
         Total DFT energy =     -579.740910359671
         Total DFT energy =     -579.740910217673
         Total DFT energy =     -579.740909499312
         Total DFT energy =     -579.740909428966
         Total DFT energy =     -579.740914176357
         Total DFT energy =     -579.740913412610
         Total DFT energy =     -579.740920803800
         Total DFT energy =     -579.740921136483
         Total DFT energy =     -579.740918938641
         Total DFT energy =     -579.740919035131
         Total DFT energy =     -579.740904724391
         Total DFT energy =     -579.740904978703
         Total DFT energy =     -579.740921263190
         Total DFT energy =     -579.740920784589
 Zero-Point correction to Energy  =   44.235 kcal/mol  (  0.070493 au)
 Thermal correction to Energy     =   46.906 kcal/mol  (  0.074750 au)
 Thermal correction to Enthalpy   =   47.499 kcal/mol  (  0.075694 au)
 Total Entropy                    =   68.428 cal/mol-K
   - Translational                =   38.883 cal/mol-K (mol. weight =  76.0080)
   - Rotational                   =   25.296 cal/mol-K (symmetry #  =        1)
   - Vibrational                  =    4.249 cal/mol-K
   - Translational                  =    2.979 cal/mol-K
   - Rotational                     =    2.979 cal/mol-K
   - Vibrational                    =    8.447 cal/mol-K
 P.Frequency     -196.81       -0.00       -0.00       -0.00       -0.00        0.00
 P.Frequency        0.00      354.36      392.13      459.02      539.66      709.33
 P.Frequency      929.84      946.54     1037.42     1081.05     1206.07     1454.69
 P.Frequency     1457.99     1522.51     1533.22     1702.20     3024.79     3085.73
 P.Frequency     3138.85     3139.60     3242.69

 Normal Eigenvalue ||           Projected Infra Red Intensities
  Mode   [cm**-1]  || [atomic units] [(debye/angs)**2] [(KM/mol)] [arbitrary]
 ------ ---------- || -------------- ----------------- ---------- -----------
    1     -196.813 ||    0.000033           0.001         0.032       0.024
    2       -0.000 ||    0.000289           0.007         0.281       0.210
    3       -0.000 ||    0.000785           0.018         0.766       0.571
    4       -0.000 ||    0.000690           0.016         0.673       0.501
    5       -0.000 ||    0.000958           0.022         0.933       0.696
    6        0.000 ||    0.001274           0.029         1.242       0.926
    7        0.000 ||    0.000074           0.002         0.072       0.054
    8      354.361 ||    0.000846           0.020         0.825       0.615
    9      392.128 ||    0.000273           0.006         0.266       0.198
   10      459.021 ||    0.012267           0.283        11.958       8.914
   11      539.659 ||    0.055180           1.273        53.792      40.098
   12      709.335 ||    0.000003           0.000         0.003       0.002
   13      929.836 ||    0.004816           0.111         4.695       3.499
   14      946.538 ||    0.057498           1.327        56.052      41.782
   15     1037.424 ||    0.005311           0.123         5.177       3.859
   16     1081.049 ||    0.001963           0.045         1.914       1.427
   17     1206.069 ||    0.082965           1.914        80.878      60.288
   18     1454.691 ||    0.004995           0.115         4.869       3.629
   19     1457.994 ||    0.006551           0.151         6.386       4.760
   20     1522.510 ||    0.012278           0.283        11.970       8.922
   21     1533.222 ||    0.013626           0.314        13.284       9.902
   22     1702.198 ||    0.054560           1.259        53.188      39.647
   23     3024.792 ||    0.025176           0.581        24.543      18.295
   24     3085.730 ||    0.016182           0.373        15.775      11.759
   25     3138.852 ||    0.002111           0.049         2.058       1.534
   26     3139.603 ||    0.007694           0.178         7.500       5.591
   27     3242.693 ||    0.003165           0.073         3.085       2.300
 ----------------------------------------------------------------------------

         Total DFT energy =     -579.746117022562
      Atom:    1  H
           isotropic =      31.1212
      Atom:    2  H
           isotropic =      30.1456
      Atom:    3  H
           isotropic =      30.1432
      Atom:    4  H
           isotropic =      27.2014
      Atom:    5  H
           isotropic =      27.0207
 Total times  cpu:     1184.9s     wall:     1066.9s
