============================== echo of input deck ==============================
start

title "Molecule conformer 0"

memory total 4000 mb

echo
geometry units angstroms
   C     -0.0205    -0.8810    -0.7210
   C     -0.3635     0.3646     0.0396
   C      0.4560     0.8329     0.9853
   Cl    -1.8596     1.2193    -0.3157
   H      0.0747    -1.7373    -0.0202
   H      0.9389    -0.7408    -1.2624
   H     -0.8153    -1.1134    -1.4603
   H      0.2049     1.7350     1.5342
   H      1.3844     0.3208     1.2204
end

basis spherical
* library 6-311G
end

driver
  maxiter 500
  xyz final
end

relativistic
  zora on
  zora:cutoff_NMR 1d-8
  zora:cutoff 1d-30
end

dft
  direct
  grid fine
  xc B3LYP
  mult 1
  maxiter 1500
  noprint "final vectors analysis" multipole
end

task dft optimize

task dft freq

property
  shielding 5 5 6 7 8 9
end

cosmo
   solvent cdcl3
end

task dft property
================================================================================

         Total DFT energy =     -579.735306082873
@ Step       Energy      Delta E   Gmax     Grms     Xrms     Xmax   Walltime
@ ---- ---------------- -------- -------- -------- -------- -------- --------
@    0    -579.73530608  0.0D+00  0.02806  0.00728  0.00000  0.00000     30.5
         Total DFT energy =     -579.739759050462
         Total DFT energy =     -579.740070538601
@    1    -579.74007054 -4.8D-03  0.01199  0.00308  0.06461  0.15844     72.6
         Total DFT energy =     -579.740684773383
         Total DFT energy =     -579.740784808316
@    2    -579.74078481 -7.1D-04  0.00477  0.00097  0.01518  0.03935    111.0
         Total DFT energy =     -579.740826631876
         Total DFT energy =   -579.740826631876
@    3    -579.74082663 -4.2D-05  0.00039  0.00013  0.00477  0.01492    132.5
         Total DFT energy =     -579.740829267924
         Total DFT energy =   -579.740829267924
@    4    -579.74082927 -2.6D-06  0.00016  0.00004  0.00161  0.00476    148.3
         Total DFT energy =     -579.740829594532
         Total DFT energy =   -579.740829594532
@    5    -579.74082959 -3.3D-07  0.00003  0.00001  0.00038  0.00097    161.3
@    5    -579.74082959 -3.3D-07  0.00003  0.00001  0.00038  0.00097    161.3

 Output coordinates in angstroms (scale by  1.889725989 to convert to a.u.)

  No.       Tag          Charge          X              Y              Z
 ---- ---------------- ---------- -------------- -------------- --------------
    1 C                    6.0000    -1.14430698     1.28373562     0.00000000
    2 C                    6.0000     0.13354808     0.49272245     0.00000000
    3 C                    6.0000     1.37810610     0.94721005     0.00000000
    4 Cl                  17.0000    -0.11845957    -1.34801495     0.00000000
    5 H                    1.0000    -1.20030859     1.92226103    -0.88373347
    6 H                    1.0000    -1.20030859     1.92226103     0.88373347
    7 H                    1.0000    -2.01661785     0.63670568     0.00000000
    8 H                    1.0000     2.23911812     0.29751311     0.00000000
    9 H                    1.0000     1.55712226     2.01576315     0.00000000

         Total DFT energy =     -579.740829512094
         Total DFT energy =     -579.740895877535
         Total DFT energy =     -579.740894922427
         Total DFT energy =     -579.740894038701
         Total DFT energy =     -579.740894877551
         Total DFT energy =     -579.740895150457
         Total DFT energy =     -579.740894257005
         Total DFT energy =     -579.740881719747
         Total DFT energy =     -579.740881847633
         Total DFT energy =     -579.740903436847
         Total DFT energy =     -579.740903482788
         Total DFT energy =     -579.740914168935
         Total DFT energy =     -579.740915248207
         Total DFT energy =     -579.740879608180
         Total DFT energy =     -579.740879189288
         Total DFT energy =     -579.740888949831
         Total DFT energy =     -579.740887921908
         Total DFT energy =     -579.740916025408
         Total DFT energy =     -579.740915974632
         Total DFT energy =     -579.740919214746
         Total DFT energy =     -579.740919446106
         Total DFT energy =     -579.740913188633
         Total DFT energy =     -579.740913598877
         Total DFT energy =     -579.740921350879
         Total DFT energy =     -579.740920453759
         Total DFT energy =     -579.740918643295
         Total DFT energy =     -579.740918805503
         Total DFT energy =     -579.740914246333
         Total DFT energy =     -579.740913986628
         Total DFT energy =     -579.740909706999
         Total DFT energy =     -579.740909431369
         Total DFT energy =     -579.740909069503
         Total DFT energy =     -579.740909528507
         Total DFT energy =     -579.740913197223
         Total DFT energy =     -579.740913289859
         Total DFT energy =     -579.740918922454
         Total DFT energy =     -579.740919047052
         Total DFT energy =     -579.740908780953
         Total DFT energy =     -579.740908709048
         Total DFT energy =     -579.740912693566
         Total DFT energy =     -579.740913456415
         Total DFT energy =     -579.740920165674
         Total DFT energy =     -579.740920335936
         Total DFT energy =     -579.740918221357
         Total DFT energy =     -579.740918316392
         Total DFT energy =     -579.740904258406
         Total DFT energy =     -579.740904005768
         Total DFT energy =     -579.740920388203
         Total DFT energy =     -579.740920220902
 Zero-Point correction to Energy  =   44.239 kcal/mol  (  0.070500 au)
 Thermal correction to Energy     =   46.910 kcal/mol  (  0.074756 au)
 Thermal correction to Enthalpy   =   47.502 kcal/mol  (  0.075700 au)
 Total Entropy                    =   68.424 cal/mol-K
   - Translational                =   38.883 cal/mol-K (mol. weight =  76.0080)
   - Rotational                   =   25.296 cal/mol-K (symmetry #  =        1)
   - Vibrational                  =    4.245 cal/mol-K
   - Translational                  =    2.979 cal/mol-K
   - Rotational                     =    2.979 cal/mol-K
   - Vibrational                    =    8.444 cal/mol-K
 P.Frequency     -196.23       -0.00        0.00        0.00        0.00        0.00
 P.Frequency        0.00      354.47      392.74      459.15      540.25      709.35
 P.Frequency      929.78      946.52     1037.25     1081.27     1206.12     1454.63
 P.Frequency     1457.48     1523.19     1533.76     1702.25     3026.13     3086.22
 P.Frequency     3138.16     3139.32     3242.69

 Normal Eigenvalue ||           Projected Infra Red Intensities
  Mode   [cm**-1]  || [atomic units] [(debye/angs)**2] [(KM/mol)] [arbitrary]
 ------ ---------- || -------------- ----------------- ---------- -----------
    1     -196.227 ||    0.000036           0.001         0.035       0.026
    2       -0.000 ||    0.001223           0.028         1.192       0.890
    3        0.000 ||    0.000303           0.007         0.295       0.220
    4        0.000 ||    0.000819           0.019         0.798       0.596
    5        0.000 ||    0.000625           0.014         0.609       0.455
    6        0.000 ||    0.000440           0.010         0.429       0.320
    7        0.000 ||    0.000649           0.015         0.633       0.472
    8      354.472 ||    0.000875           0.020         0.853       0.636
    9      392.736 ||    0.000259           0.006         0.252       0.188
   10      459.151 ||    0.012237           0.282        11.929       8.904
   11      540.248 ||    0.055129           1.272        53.742      40.110
   12      709.351 ||    0.000002           0.000         0.002       0.002
   13      929.777 ||    0.004797           0.111         4.676       3.490
   14      946.522 ||    0.057461           1.326        56.016      41.808
   15     1037.250 ||    0.005230           0.121         5.098       3.805
   16     1081.273 ||    0.001973           0.046         1.923       1.435
   17     1206.124 ||    0.082937           1.913        80.851      60.343
   18     1454.628 ||    0.005995           0.138         5.844       4.362
   19     1457.477 ||    0.005625           0.130         5.483       4.092
   20     1523.190 ||    0.012215           0.282        11.907       8.887
   21     1533.765 ||    0.013628           0.314        13.285       9.915
   22     1702.248 ||    0.054506           1.257        53.135      39.657
   23     3026.135 ||    0.024847           0.573        24.222      18.078
   24     3086.224 ||    0.016241           0.375        15.832      11.817
   25     3138.161 ||    0.003728           0.086         3.634       2.712
   26     3139.325 ||    0.006146           0.142         5.991       4.472
   27     3242.690 ||    0.003169           0.073         3.089       2.305
 ----------------------------------------------------------------------------

         Total DFT energy =     -579.746116671976
      Atom:    1  H
           isotropic =      30.1452
      Atom:    2  H
           isotropic =      30.1436
      Atom:    3  H
           isotropic =      31.1212
      Atom:    4  H
           isotropic =      27.2014
      Atom:    5  H
           isotropic =      27.0207
 Total times  cpu:     1053.9s     wall:     1023.4s
