============================== echo of input deck ==============================
start

title "Molecule conformer 0"

memory total 4000 mb

echo
geometry units angstroms
   C     -0.8766    -0.6330    -0.5701
   C     -0.0317     0.4051     0.1053
   C      1.2918     0.4304    -0.0769
   Cl    -0.7889     1.6023     1.1486
   H     -1.9449    -0.4962    -0.3012
   H     -0.7734    -0.5453    -1.6723
   H     -0.5564    -1.6472    -0.2504
   H      1.7793    -0.2992    -0.7167
   H      1.9008     1.1832     0.4134
end

basis spherical
* library 6-311G
end

driver
  maxiter 500
  xyz final
end

relativistic
  zora on
  zora:cutoff_NMR 1d-8
  zora:cutoff 1d-30
end

dft
  direct
  grid fine
  xc B3LYP
  mult 1
  maxiter 1500
  noprint "final vectors analysis" multipole
end

task dft optimize

task dft freq

property
  shielding 5 5 6 7 8 9
end

cosmo
   solvent cdcl3
end

task dft property
================================================================================

         Total DFT energy =     -579.735304369525
@ Step       Energy      Delta E   Gmax     Grms     Xrms     Xmax   Walltime
@ ---- ---------------- -------- -------- -------- -------- -------- --------
@    0    -579.73530437  0.0D+00  0.02804  0.00728  0.00000  0.00000     31.4
         Total DFT energy =     -579.739758537760
         Total DFT energy =     -579.740070781566
@    1    -579.74007078 -4.8D-03  0.01200  0.00308  0.06462  0.15847     76.2
         Total DFT energy =     -579.740684839729
         Total DFT energy =     -579.740784862600
@    2    -579.74078486 -7.1D-04  0.00475  0.00097  0.01518  0.03939    114.3
         Total DFT energy =     -579.740826631755
         Total DFT energy =   -579.740826631755
@    3    -579.74082663 -4.2D-05  0.00039  0.00013  0.00477  0.01491    136.8
         Total DFT energy =     -579.740829268417
         Total DFT energy =   -579.740829268417
@    4    -579.74082927 -2.6D-06  0.00016  0.00004  0.00161  0.00477    151.8
         Total DFT energy =     -579.740829595610
         Total DFT energy =   -579.740829595610
@    5    -579.74082960 -3.3D-07  0.00003  0.00001  0.00038  0.00097    164.6
@    5    -579.74082960 -3.3D-07  0.00003  0.00001  0.00038  0.00097    164.6

 Output coordinates in angstroms (scale by  1.889725989 to convert to a.u.)

  No.       Tag          Charge          X              Y              Z
 ---- ---------------- ---------- -------------- -------------- --------------
    1 C                    6.0000    -1.14435921     1.28368998     0.00000000
    2 C                    6.0000     0.13353525     0.49274053     0.00000000
    3 C                    6.0000     1.37807067     0.94728990     0.00000000
    4 Cl                  17.0000    -0.11838107    -1.34800915     0.00000000
    5 H                    1.0000    -2.01663820     0.63661712     0.00000000
    6 H                    1.0000    -1.20039186     1.92221329     0.88373301
    7 H                    1.0000    -1.20039186     1.92221329    -0.88373301
    8 H                    1.0000     1.55703449     2.01585179     0.00000000
    9 H                    1.0000     2.23911507     0.29763591     0.00000000

         Total DFT energy =     -579.740829514631
         Total DFT energy =     -579.740895879030
         Total DFT energy =     -579.740894921200
         Total DFT energy =     -579.740894040610
         Total DFT energy =     -579.740894874800
         Total DFT energy =     -579.740895046853
         Total DFT energy =     -579.740894360185
         Total DFT energy =     -579.740881719464
         Total DFT energy =     -579.740881848461
         Total DFT energy =     -579.740903436149
         Total DFT energy =     -579.740903482449
         Total DFT energy =     -579.740914165234
         Total DFT energy =     -579.740915251505
         Total DFT energy =     -579.740879609368
         Total DFT energy =     -579.740879188355
         Total DFT energy =     -579.740888949988
         Total DFT energy =     -579.740887921061
         Total DFT energy =     -579.740916025251
         Total DFT energy =     -579.740915974351
         Total DFT energy =     -579.740919214904
         Total DFT energy =     -579.740919446099
         Total DFT energy =     -579.740913187640
         Total DFT energy =     -579.740913599471
         Total DFT energy =     -579.740921350696
         Total DFT energy =     -579.740920453498
         Total DFT energy =     -579.740909070229
         Total DFT energy =     -579.740909528921
         Total DFT energy =     -579.740913196422
         Total DFT energy =     -579.740913289009
         Total DFT energy =     -579.740918916551
         Total DFT energy =     -579.740919052492
         Total DFT energy =     -579.740918552836
         Total DFT energy =     -579.740918897136
         Total DFT energy =     -579.740914365212
         Total DFT energy =     -579.740913867006
         Total DFT energy =     -579.740909170568
         Total DFT energy =     -579.740909965833
         Total DFT energy =     -579.740918220678
         Total DFT energy =     -579.740918317265
         Total DFT energy =     -579.740904258136
         Total DFT energy =     -579.740904005318
         Total DFT energy =     -579.740920388502
         Total DFT energy =     -579.740920220145
         Total DFT energy =     -579.740908779932
         Total DFT energy =     -579.740908708638
         Total DFT energy =     -579.740912693653
         Total DFT energy =     -579.740913457599
         Total DFT energy =     -579.740920164688
         Total DFT energy =     -579.740920336464
 Zero-Point correction to Energy  =   44.234 kcal/mol  (  0.070492 au)
 Thermal correction to Energy     =   46.906 kcal/mol  (  0.074749 au)
 Thermal correction to Enthalpy   =   47.498 kcal/mol  (  0.075693 au)
 Total Entropy                    =   68.429 cal/mol-K
   - Translational                =   38.883 cal/mol-K (mol. weight =  76.0080)
   - Rotational                   =   25.296 cal/mol-K (symmetry #  =        1)
   - Vibrational                  =    4.250 cal/mol-K
   - Translational                  =    2.979 cal/mol-K
   - Rotational                     =    2.979 cal/mol-K
   - Vibrational                    =    8.448 cal/mol-K
 P.Frequency     -197.59       -0.00        0.00        0.00        0.00        0.00
 P.Frequency        0.00      354.37      391.90      459.02      539.73      709.34
 P.Frequency      929.75      946.54     1037.30     1080.81     1205.80     1455.07
 P.Frequency     1458.14     1522.34     1533.10     1702.24     3025.01     3085.88
 P.Frequency     3138.61     3139.47     3242.82

 Normal Eigenvalue ||           Projected Infra Red Intensities
  Mode   [cm**-1]  || [atomic units] [(debye/angs)**2] [(KM/mol)] [arbitrary]
 ------ ---------- || -------------- ----------------- ---------- -----------
    1     -197.588 ||    0.000033           0.001         0.033       0.024
    2       -0.000 ||    0.000678           0.016         0.661       0.493
    3        0.000 ||    0.001282           0.030         1.249       0.932
    4        0.000 ||    0.000318           0.007         0.310       0.231
    5        0.000 ||    0.000986           0.023         0.961       0.717
    6        0.000 ||    0.000045           0.001         0.044       0.033
    7        0.000 ||    0.000749           0.017         0.730       0.545
    8      354.374 ||    0.000851           0.020         0.829       0.619
    9      391.900 ||    0.000271           0.006         0.264       0.197
   10      459.024 ||    0.012263           0.283        11.955       8.921
   11      539.731 ||    0.055084           1.271        53.699      40.070
   12      709.336 ||    0.000002           0.000         0.002       0.002
   13      929.747 ||    0.004763           0.110         4.643       3.465
   14      946.541 ||    0.057507           1.327        56.061      41.833
   15     1037.295 ||    0.005269           0.122         5.137       3.833
   16     1080.809 ||    0.001964           0.045         1.915       1.429
   17     1205.800 ||    0.083084           1.917        80.995      60.439
   18     1455.067 ||    0.006080           0.140         5.927       4.422
   19     1458.139 ||    0.005396           0.124         5.260       3.925
   20     1522.337 ||    0.012260           0.283        11.952       8.919
   21     1533.105 ||    0.013654           0.315        13.311       9.932
   22     1702.237 ||    0.054533           1.258        53.161      39.669
   23     3025.005 ||    0.024885           0.574        24.259      18.102
   24     3085.876 ||    0.016226           0.374        15.818      11.803
   25     3138.612 ||    0.002157           0.050         2.103       1.569
   26     3139.471 ||    0.007635           0.176         7.443       5.554
   27     3242.823 ||    0.003189           0.074         3.109       2.320
 ----------------------------------------------------------------------------

         Total DFT energy =     -579.746116641661
      Atom:    1  H
           isotropic =      31.1212
      Atom:    2  H
           isotropic =      30.1427
      Atom:    3  H
           isotropic =      30.1461
      Atom:    4  H
           isotropic =      27.0208
      Atom:    5  H
           isotropic =      27.2014
 Total times  cpu:     1059.6s     wall:     1030.5s
